
.Version 9.2.0 of ABINIT 
.(MPI version, prepared for a x86_64_darwin18.7.0_gnu8.2 computer) 

.Copyright (C) 1998-2020 ABINIT group . 
 ABINIT comes with ABSOLUTELY NO WARRANTY.
 It is free software, and you are welcome to redistribute it
 under certain conditions (GNU General Public License,
 see ~abinit/COPYING or http://www.gnu.org/copyleft/gpl.txt).

 ABINIT is a project of the Universite Catholique de Louvain,
 Corning Inc. and other collaborators, see ~abinit/doc/developers/contributors.txt .
 Please read https://docs.abinit.org/theory/acknowledgments for suggested
 acknowledgments of the ABINIT effort.
 For more information, see https://www.abinit.org .

.Starting date : Mon 21 Sep 2020.
- ( at 02h26 )
  
- input  file    -> /Users/gmatteo/git_repos/MgO_eph_zpr/flow_zpr_mgo/w0/t1/run.abi
- output file    -> /Users/gmatteo/git_repos/MgO_eph_zpr/flow_zpr_mgo/w0/t1/run.abo
- root for input  files -> /Users/gmatteo/git_repos/MgO_eph_zpr/flow_zpr_mgo/w0/t1/indata/in
- root for output files -> /Users/gmatteo/git_repos/MgO_eph_zpr/flow_zpr_mgo/w0/t1/outdata/out


 Symmetries : space group Fm -3 m (#225); Bravais cF (face-center cubic)
================================================================================
 Values of the parameters that define the memory need of the present run
     intxc =       0    ionmov =       0      iscf =      -2    lmnmax =       5
     lnmax =       5     mgfft =      32  mpssoang =       3    mqgrid =    3001
     natom =       2  nloc_mem =       1    nspden =       1   nspinor =       1
    nsppol =       1      nsym =      48    n1xccc =    2501    ntypat =       2
    occopt =       1   xclevel =       2
-    mband =          12        mffmem =           1         mkmem =          99
       mpw =        1307          nfft =       32768          nkpt =         198
================================================================================
P This job should need less than                      32.578 Mbytes of memory.
  Rough estimation (10% accuracy) of disk space for files :
_ WF disk file :     47.387 Mbytes ; DEN or POT disk file :      0.252 Mbytes.
================================================================================

--------------------------------------------------------------------------------
------------- Echo of variables that govern the present computation ------------
--------------------------------------------------------------------------------
-
- outvars: echo of selected default values                                      
-   iomode0 =  0 , fftalg0 =312 , wfoptalg0 =  0
-
- outvars: echo of global parameters not present in the input file              
-  max_nthreads =    0
-
 -outvars: echo values of preprocessed input variables --------
-          iomode           3
            acell      1.0000000000E+00  1.0000000000E+00  1.0000000000E+00 Bohr
              amu      1.59994000E+01  2.43050000E+01
           diemac      9.00000000E+00
             ecut      3.50000000E+01 Hartree
-          fftalg         312
           irdden           1
             iscf          -2
           istwfk        2    0    0    0    0    0    0    0    0    0
                         0    0    0    0    0    0    0    0    0    0
                         0    0    0    0    0    0    0    0    5    0
                         0    0    0    0    0    0    0    0    0    0
                         0    0    0    0    0    0    0    0    0    0
                       outvar_i_n : Printing only first  50 k-points.
              ixc          11
              kpt      0.00000000E+00  0.00000000E+00  0.00000000E+00
                       1.78571429E-02  0.00000000E+00  1.78571429E-02
                       3.57142857E-02  0.00000000E+00  3.57142857E-02
                       5.35714286E-02  0.00000000E+00  5.35714286E-02
                       7.14285714E-02  0.00000000E+00  7.14285714E-02
                       8.92857143E-02  0.00000000E+00  8.92857143E-02
                       1.07142857E-01  0.00000000E+00  1.07142857E-01
                       1.25000000E-01  0.00000000E+00  1.25000000E-01
                       1.42857143E-01  0.00000000E+00  1.42857143E-01
                       1.60714286E-01  0.00000000E+00  1.60714286E-01
                       1.78571429E-01  0.00000000E+00  1.78571429E-01
                       1.96428571E-01  0.00000000E+00  1.96428571E-01
                       2.14285714E-01  0.00000000E+00  2.14285714E-01
                       2.32142857E-01  0.00000000E+00  2.32142857E-01
                       2.50000000E-01  0.00000000E+00  2.50000000E-01
                       2.67857143E-01  0.00000000E+00  2.67857143E-01
                       2.85714286E-01  0.00000000E+00  2.85714286E-01
                       3.03571429E-01  0.00000000E+00  3.03571429E-01
                       3.21428571E-01  0.00000000E+00  3.21428571E-01
                       3.39285714E-01  0.00000000E+00  3.39285714E-01
                       3.57142857E-01  0.00000000E+00  3.57142857E-01
                       3.75000000E-01  0.00000000E+00  3.75000000E-01
                       3.92857143E-01  0.00000000E+00  3.92857143E-01
                       4.10714286E-01  0.00000000E+00  4.10714286E-01
                       4.28571429E-01  0.00000000E+00  4.28571429E-01
                       4.46428571E-01  0.00000000E+00  4.46428571E-01
                       4.64285714E-01  0.00000000E+00  4.64285714E-01
                       4.82142857E-01  0.00000000E+00  4.82142857E-01
                       5.00000000E-01  0.00000000E+00  5.00000000E-01
                       5.00000000E-01  1.78571429E-02  5.17857143E-01
                       5.00000000E-01  3.57142857E-02  5.35714286E-01
                       5.00000000E-01  5.35714286E-02  5.53571429E-01
                       5.00000000E-01  7.14285714E-02  5.71428571E-01
                       5.00000000E-01  8.92857143E-02  5.89285714E-01
                       5.00000000E-01  1.07142857E-01  6.07142857E-01
                       5.00000000E-01  1.25000000E-01  6.25000000E-01
                       5.00000000E-01  1.42857143E-01  6.42857143E-01
                       5.00000000E-01  1.60714286E-01  6.60714286E-01
                       5.00000000E-01  1.78571429E-01  6.78571429E-01
                       5.00000000E-01  1.96428571E-01  6.96428571E-01
                       5.00000000E-01  2.14285714E-01  7.14285714E-01
                       5.00000000E-01  2.32142857E-01  7.32142857E-01
                       5.00000000E-01  2.50000000E-01  7.50000000E-01
                       4.87500000E-01  2.62500000E-01  7.50000000E-01
                       4.75000000E-01  2.75000000E-01  7.50000000E-01
                       4.62500000E-01  2.87500000E-01  7.50000000E-01
                       4.50000000E-01  3.00000000E-01  7.50000000E-01
                       4.37500000E-01  3.12500000E-01  7.50000000E-01
                       4.25000000E-01  3.25000000E-01  7.50000000E-01
                       4.12500000E-01  3.37500000E-01  7.50000000E-01
                       outvar_i_n : Printing only first  50 k-points.
           kptopt         -11
P           mkmem          99
            natom           2
            nband          12
           nbdbuf           4
           ndivsm          10
            ngfft          32      32      32
             nkpt         198
            nstep         150
             nsym          48
           ntypat           2
           prtden           0
           prtpot           1
            prtwf          -1
            rprim      0.0000000000E+00  4.0182361526E+00  4.0182361526E+00
                       4.0182361526E+00  0.0000000000E+00  4.0182361526E+00
                       4.0182361526E+00  4.0182361526E+00  0.0000000000E+00
           shiftk      5.00000000E-01  5.00000000E-01  5.00000000E-01
          spgroup         225
           symrel      1  0  0   0  1  0   0  0  1      -1  0  0   0 -1  0   0  0 -1
                       0 -1  1   0 -1  0   1 -1  0       0  1 -1   0  1  0  -1  1  0
                      -1  0  0  -1  0  1  -1  1  0       1  0  0   1  0 -1   1 -1  0
                       0  1 -1   1  0 -1   0  0 -1       0 -1  1  -1  0  1   0  0  1
                      -1  0  0  -1  1  0  -1  0  1       1  0  0   1 -1  0   1  0 -1
                       0 -1  1   1 -1  0   0 -1  0       0  1 -1  -1  1  0   0  1  0
                       1  0  0   0  0  1   0  1  0      -1  0  0   0  0 -1   0 -1  0
                       0  1 -1   0  0 -1   1  0 -1       0 -1  1   0  0  1  -1  0  1
                      -1  0  1  -1  1  0  -1  0  0       1  0 -1   1 -1  0   1  0  0
                       0 -1  0   1 -1  0   0 -1  1       0  1  0  -1  1  0   0  1 -1
                       1  0 -1   0  0 -1   0  1 -1      -1  0  1   0  0  1   0 -1  1
                       0  1  0   0  0  1   1  0  0       0 -1  0   0  0 -1  -1  0  0
                       1  0 -1   0  1 -1   0  0 -1      -1  0  1   0 -1  1   0  0  1
                       0 -1  0   0 -1  1   1 -1  0       0  1  0   0  1 -1  -1  1  0
                      -1  0  1  -1  0  0  -1  1  0       1  0 -1   1  0  0   1 -1  0
                       0  1  0   1  0  0   0  0  1       0 -1  0  -1  0  0   0  0 -1
                       0  0 -1   0  1 -1   1  0 -1       0  0  1   0 -1  1  -1  0  1
                       1 -1  0   0 -1  1   0 -1  0      -1  1  0   0  1 -1   0  1  0
                       0  0  1   1  0  0   0  1  0       0  0 -1  -1  0  0   0 -1  0
                      -1  1  0  -1  0  0  -1  0  1       1 -1  0   1  0  0   1  0 -1
                       0  0  1   0  1  0   1  0  0       0  0 -1   0 -1  0  -1  0  0
                       1 -1  0   0 -1  0   0 -1  1      -1  1  0   0  1  0   0  1 -1
                       0  0 -1   1  0 -1   0  1 -1       0  0  1  -1  0  1   0 -1  1
                      -1  1  0  -1  0  1  -1  0  0       1 -1  0   1  0 -1   1  0  0
           tolwfr      1.00000000E-18
            typat      2  1
                       outvars : Printing only first  50 k-points.
           xangst      0.0000000000E+00  0.0000000000E+00  0.0000000000E+00
                       2.1263589907E+00  2.1263589907E+00  2.1263589907E+00
            xcart      0.0000000000E+00  0.0000000000E+00  0.0000000000E+00
                       4.0182361526E+00  4.0182361526E+00  4.0182361526E+00
             xred      0.0000000000E+00  0.0000000000E+00  0.0000000000E+00
                       5.0000000000E-01  5.0000000000E-01  5.0000000000E-01
            znucl        8.00000   12.00000

================================================================================

 chkinp: Checking input parameters for consistency.

================================================================================
== DATASET  1 ==================================================================
-   mpi_nproc: 2, omp_nthreads: -1 (-1 if OMP is not activated)


--- !DatasetInfo
iteration_state: {dtset: 1, }
dimensions: {natom: 2, nkpt: 198, mband: 12, nsppol: 1, nspinor: 1, nspden: 1, mpw: 1307, }
cutoff_energies: {ecut:  35.0, pawecutdg:  -1.0, }
electrons: {nelect:   1.60000000E+01, charge:   0.00000000E+00, occopt:   1.00000000E+00, tsmear:   1.00000000E-02, }
meta: {optdriver: 0, ionmov: 0, optcell: 0, iscf: -2, paral_kgb: 0, }
...

 Exchange-correlation functional for the present dataset will be:
  GGA: Perdew-Burke-Ernzerhof functional - ixc=11
 Citation for XC functional:
  J.P.Perdew, K.Burke, M.Ernzerhof, PRL 77, 3865 (1996)

 Real(R)+Recip(G) space primitive vectors, cartesian coordinates (Bohr,Bohr^-1):
 R(1)=  0.0000000  4.0182362  4.0182362  G(1)= -0.1244327  0.1244327  0.1244327
 R(2)=  4.0182362  0.0000000  4.0182362  G(2)=  0.1244327 -0.1244327  0.1244327
 R(3)=  4.0182362  4.0182362  0.0000000  G(3)=  0.1244327  0.1244327 -0.1244327
 Unit cell volume ucvol=  1.2975866E+02 bohr^3
 Angles (23,13,12)=  6.00000000E+01  6.00000000E+01  6.00000000E+01 degrees

 getcut: wavevector=  0.0000  0.0000  0.0000  ngfft=  32  32  32
         ecut(hartree)=     35.000   => boxcut(ratio)=   2.11446

--- Pseudopotential description ------------------------------------------------
- pspini: atom type   1  psp file is /Users/gmatteo/git_repos/MgO_eph_zpr/O.psp8
- pspatm: opening atomic psp file    /Users/gmatteo/git_repos/MgO_eph_zpr/O.psp8
- O     ONCVPSP  r_core=  1.36  1.46  1.26
-  8.00000   6.00000    151103                znucl, zion, pspdat
    8   11    2    4       600   0.00000      pspcod,pspxc,lmax,lloc,mmax,r2well
    5.99000000000000    4.00000000000000    0.00000000000000   rchrg,fchrg,qchrg
     nproj     2     2     1
     extension_switch     1
  pspatm : epsatm=    6.19401560
         --- l  ekb(1:nproj) -->
             0    5.257212    0.704241
             1   -5.135443   -1.451781
             2   -4.371486
 pspatm: atomic psp has been read  and splines computed

- pspini: atom type   2  psp file is /Users/gmatteo/git_repos/MgO_eph_zpr/Mg-sp-gw.psp8
- pspatm: opening atomic psp file    /Users/gmatteo/git_repos/MgO_eph_zpr/Mg-sp-gw.psp8
- Mg    ONCVPSP  r_core=  1.16  1.56
- 12.00000  10.00000    150902                znucl, zion, pspdat
    8   11    1    4       400   0.00000      pspcod,pspxc,lmax,lloc,mmax,r2well
    3.99000000000000    0.00000000000000    0.00000000000000   rchrg,fchrg,qchrg
     nproj     2     2
     extension_switch     1
  pspatm : epsatm=    9.22508734
         --- l  ekb(1:nproj) -->
             0    2.568049   -0.805950
             1   -6.605901   -2.664074
 pspatm: atomic psp has been read  and splines computed

--------------------------------------------------------------------------------


================================================================================
 prteigrs : about to open file /Users/gmatteo/git_repos/MgO_eph_zpr/flow_zpr_mgo/w0/t1/outdata/out_EIG
 Non-SCF case, kpt    1 (  0.00000  0.00000  0.00000), residuals and eigenvalues=
  7.68E-19  6.16E-19  2.08E-19  8.54E-19  2.18E-19  1.78E-19  7.49E-19  8.84E-19
  1.30E-19  1.22E-19  1.16E-18  4.75E-19
 -2.5001E+00 -1.2774E+00 -1.2774E+00 -1.2774E+00 -4.6171E-01  1.6500E-01
  1.6500E-01  1.6500E-01  3.2959E-01  7.4474E-01  7.4474E-01  7.4474E-01
  prteigrs : nnsclo,ikpt=  150    1 max resid (incl. the buffer)=  1.15943E-18
 Non-SCF case, kpt    2 (  0.01786  0.00000  0.01786), residuals and eigenvalues=
  9.39E-19  2.01E-19  5.29E-19  5.11E-19  2.51E-19  7.60E-19  7.33E-19  4.30E-19
  8.36E-19  2.68E-19  2.27E-19  4.51E-19
 -2.5001E+00 -1.2774E+00 -1.2774E+00 -1.2774E+00 -4.6154E-01  1.6399E-01
  1.6481E-01  1.6481E-01  3.3074E-01  7.4172E-01  7.4511E-01  7.4511E-01
 Non-SCF case, kpt    3 (  0.03571  0.00000  0.03571), residuals and eigenvalues=
  2.41E-19  2.58E-19  4.12E-19  3.00E-19  3.78E-19  6.22E-19  7.10E-19  9.54E-19
  1.10E-19  8.23E-18  1.07E-17  9.18E-17
 -2.5001E+00 -1.2775E+00 -1.2774E+00 -1.2774E+00 -4.6105E-01  1.6106E-01
  1.6428E-01  1.6428E-01  3.3409E-01  7.3350E-01  7.4619E-01  7.4619E-01
  prteigrs : nnsclo,ikpt=  150    3 max resid (incl. the buffer)=  9.17691E-17
 Non-SCF case, kpt    4 (  0.05357  0.00000  0.05357), residuals and eigenvalues=
  1.87E-19  8.19E-19  5.82E-19  6.11E-19  3.37E-19  5.19E-19  2.94E-19  4.25E-19
  1.20E-19  8.81E-19  8.21E-19  9.32E-19
 -2.5001E+00 -1.2776E+00 -1.2775E+00 -1.2775E+00 -4.6024E-01  1.5642E-01
  1.6338E-01  1.6338E-01  3.3939E-01  7.2185E-01  7.4798E-01  7.4798E-01
 Non-SCF case, kpt    5 (  0.07143  0.00000  0.07143), residuals and eigenvalues=
  1.93E-19  1.31E-19  5.30E-19  2.98E-19  2.68E-19  2.96E-19  3.38E-19  1.79E-19
  1.38E-19  1.28E-19  4.02E-18  1.09E-18
 -2.5001E+00 -1.2777E+00 -1.2775E+00 -1.2775E+00 -4.5911E-01  1.5046E-01
  1.6215E-01  1.6215E-01  3.4633E-01  7.0832E-01  7.5042E-01  7.5042E-01
  prteigrs : nnsclo,ikpt=  150    5 max resid (incl. the buffer)=  4.02488E-18
 Non-SCF case, kpt    6 (  0.08929  0.00000  0.08929), residuals and eigenvalues=
  2.11E-19  1.11E-19  4.56E-19  2.90E-19  7.01E-19  7.92E-19  2.56E-19  1.02E-19
  4.83E-19  4.29E-19  2.88E-16  3.83E-17
 -2.5001E+00 -1.2777E+00 -1.2776E+00 -1.2776E+00 -4.5768E-01  1.4349E-01
  1.6064E-01  1.6064E-01  3.5460E-01  6.9390E-01  7.5348E-01  7.5348E-01
  prteigrs : nnsclo,ikpt=  150    6 max resid (incl. the buffer)=  2.87992E-16
 Non-SCF case, kpt    7 (  0.10714  0.00000  0.10714), residuals and eigenvalues=
  3.62E-19  2.10E-19  6.11E-19  7.16E-20  2.11E-19  6.04E-19  7.16E-19  1.47E-19
  1.71E-19  5.02E-19  1.12E-16  6.54E-17
 -2.5000E+00 -1.2778E+00 -1.2776E+00 -1.2776E+00 -4.5597E-01  1.3579E-01
  1.5881E-01  1.5881E-01  3.6387E-01  6.7920E-01  7.5710E-01  7.5710E-01
  prteigrs : nnsclo,ikpt=  150    7 max resid (incl. the buffer)=  1.12212E-16
 Non-SCF case, kpt    8 (  0.12500  0.00000  0.12500), residuals and eigenvalues=
  3.61E-19  1.55E-19  4.23E-19  8.07E-19  1.36E-19  5.65E-19  2.64E-19  9.52E-19
  1.85E-19  1.52E-19  4.80E-15  3.68E-15
 -2.5000E+00 -1.2779E+00 -1.2777E+00 -1.2777E+00 -4.5400E-01  1.2764E-01
  1.5678E-01  1.5678E-01  3.7390E-01  6.6458E-01  7.6121E-01  7.6121E-01
  prteigrs : nnsclo,ikpt=  150    8 max resid (incl. the buffer)=  4.80435E-15
 Non-SCF case, kpt    9 (  0.14286  0.00000  0.14286), residuals and eigenvalues=
  3.18E-19  6.90E-19  3.90E-19  5.03E-19  3.36E-19  3.32E-19  6.39E-19  8.14E-19
  2.37E-19  5.72E-19  6.92E-14  2.00E-13
 -2.5000E+00 -1.2781E+00 -1.2777E+00 -1.2777E+00 -4.5178E-01  1.1922E-01
  1.5455E-01  1.5455E-01  3.8447E-01  6.5027E-01  7.6575E-01  7.6575E-01
  prteigrs : nnsclo,ikpt=  150    9 max resid (incl. the buffer)=  1.99653E-13
 Non-SCF case, kpt   10 (  0.16071  0.00000  0.16071), residuals and eigenvalues=
  9.01E-19  9.85E-19  1.32E-19  1.36E-19  9.15E-19  5.29E-19  7.12E-19  3.10E-19
  5.84E-19  1.67E-19  3.07E-12  6.18E-08
 -2.5000E+00 -1.2782E+00 -1.2778E+00 -1.2778E+00 -4.4935E-01  1.1075E-01
  1.5215E-01  1.5215E-01  3.9545E-01  6.3638E-01  7.7064E-01  7.7064E-01
  prteigrs : nnsclo,ikpt=  150   10 max resid (incl. the buffer)=  6.18019E-08
 Non-SCF case, kpt   11 (  0.17857  0.00000  0.17857), residuals and eigenvalues=
  8.80E-19  1.33E-19  9.56E-20  1.38E-19  1.04E-19  2.20E-19  5.15E-19  7.62E-19
  5.62E-20  4.75E-19  1.02E-11  3.99E-05
 -2.5000E+00 -1.2783E+00 -1.2778E+00 -1.2778E+00 -4.4674E-01  1.0231E-01
  1.4962E-01  1.4962E-01  4.0665E-01  6.2303E-01  7.7581E-01  7.7583E-01
  prteigrs : nnsclo,ikpt=  150   11 max resid (incl. the buffer)=  3.99115E-05
 Non-SCF case, kpt   12 (  0.19643  0.00000  0.19643), residuals and eigenvalues=
  4.60E-19  4.10E-19  6.65E-19  8.34E-19  2.05E-19  7.85E-19  5.89E-19  8.48E-20
  1.36E-19  5.65E-19  7.25E-07  3.69E-18
 -2.5000E+00 -1.2785E+00 -1.2779E+00 -1.2779E+00 -4.4398E-01  9.4024E-02
  1.4700E-01  1.4700E-01  4.1796E-01  6.1026E-01  7.7421E-01  7.8118E-01
  prteigrs : nnsclo,ikpt=  150   12 max resid (incl. the buffer)=  7.24516E-07
 Non-SCF case, kpt   13 (  0.21429  0.00000  0.21429), residuals and eigenvalues=
  2.65E-19  4.65E-19  3.12E-19  1.51E-19  3.77E-19  6.52E-19  2.84E-19  6.65E-19
  3.93E-19  2.64E-19  1.27E-07  4.02E-18
 -2.4999E+00 -1.2785E+00 -1.2779E+00 -1.2779E+00 -4.4109E-01  8.6011E-02
  1.4433E-01  1.4433E-01  4.2927E-01  5.9813E-01  7.5678E-01  7.8671E-01
  prteigrs : nnsclo,ikpt=  150   13 max resid (incl. the buffer)=  1.27279E-07
 Non-SCF case, kpt   14 (  0.23214  0.00000  0.23214), residuals and eigenvalues=
  2.63E-19  4.44E-19  3.05E-19  1.87E-19  9.67E-19  5.58E-19  6.55E-19  2.13E-19
  2.19E-19  1.37E-19  2.53E-09  3.51E-18
 -2.4999E+00 -1.2787E+00 -1.2780E+00 -1.2780E+00 -4.3813E-01  7.8296E-02
  1.4165E-01  1.4165E-01  4.4047E-01  5.8666E-01  7.4001E-01  7.9229E-01
  prteigrs : nnsclo,ikpt=  150   14 max resid (incl. the buffer)=  2.53052E-09
 Non-SCF case, kpt   15 (  0.25000  0.00000  0.25000), residuals and eigenvalues=
  2.92E-19  4.18E-19  3.61E-19  2.97E-19  2.05E-19  6.77E-19  3.46E-19  3.87E-19
  8.15E-19  1.53E-19  2.28E-12  3.81E-18
 -2.4999E+00 -1.2788E+00 -1.2780E+00 -1.2780E+00 -4.3511E-01  7.0957E-02
  1.3899E-01  1.3899E-01  4.5144E-01  5.7588E-01  7.2407E-01  7.9788E-01
  prteigrs : nnsclo,ikpt=  150   15 max resid (incl. the buffer)=  2.27506E-12
 Non-SCF case, kpt   16 (  0.26786  0.00000  0.26786), residuals and eigenvalues=
  8.45E-19  3.40E-19  1.99E-19  1.32E-19  8.52E-19  1.27E-19  4.05E-19  2.30E-19
  1.98E-18  3.52E-19  2.31E-09  3.65E-16
 -2.4999E+00 -1.2789E+00 -1.2780E+00 -1.2780E+00 -4.3209E-01  6.4060E-02
  1.3639E-01  1.3639E-01  4.6208E-01  5.6580E-01  7.0919E-01  8.0347E-01
  prteigrs : nnsclo,ikpt=  150   16 max resid (incl. the buffer)=  2.31399E-09
 Non-SCF case, kpt   17 (  0.28571  0.00000  0.28571), residuals and eigenvalues=
  9.99E-19  4.18E-19  2.31E-19  1.57E-19  6.30E-19  1.42E-19  1.89E-19  8.07E-19
  1.06E-18  1.54E-19  6.46E-10  1.10E-15
 -2.4999E+00 -1.2790E+00 -1.2781E+00 -1.2781E+00 -4.2911E-01  5.7604E-02
  1.3386E-01  1.3386E-01  4.7222E-01  5.5644E-01  6.9527E-01  8.0890E-01
  prteigrs : nnsclo,ikpt=  150   17 max resid (incl. the buffer)=  6.45553E-10
 Non-SCF case, kpt   18 (  0.30357  0.00000  0.30357), residuals and eigenvalues=
  2.60E-19  4.87E-19  3.93E-19  2.22E-19  5.10E-19  1.28E-19  7.04E-19  2.55E-19
  6.81E-19  6.48E-19  9.88E-13  3.36E-17
 -2.4998E+00 -1.2791E+00 -1.2781E+00 -1.2781E+00 -4.2619E-01  5.1638E-02
  1.3144E-01  1.3144E-01  4.8173E-01  5.4780E-01  6.8258E-01  8.1416E-01
  prteigrs : nnsclo,ikpt=  150   18 max resid (incl. the buffer)=  9.88456E-13
 Non-SCF case, kpt   19 (  0.32143  0.00000  0.32143), residuals and eigenvalues=
  2.30E-19  2.16E-19  5.48E-19  3.12E-19  4.10E-19  4.56E-19  4.03E-19  1.17E-19
  4.91E-19  2.87E-19  4.03E-15  4.50E-17
 -2.4998E+00 -1.2792E+00 -1.2782E+00 -1.2782E+00 -4.2338E-01  4.6170E-02
  1.2916E-01  1.2916E-01  4.9046E-01  5.3990E-01  6.7135E-01  8.1916E-01
  prteigrs : nnsclo,ikpt=  150   19 max resid (incl. the buffer)=  4.03073E-15
 Non-SCF case, kpt   20 (  0.33929  0.00000  0.33929), residuals and eigenvalues=
  2.05E-19  9.20E-19  1.78E-19  5.01E-19  3.61E-19  1.18E-19  3.11E-19  5.50E-20
  2.77E-19  7.84E-19  1.36E-15  2.04E-16
 -2.4998E+00 -1.2793E+00 -1.2782E+00 -1.2782E+00 -4.2072E-01  4.1239E-02
  1.2703E-01  1.2703E-01  4.9822E-01  5.3273E-01  6.6154E-01  8.2394E-01
  prteigrs : nnsclo,ikpt=  150   20 max resid (incl. the buffer)=  1.36236E-15
 Non-SCF case, kpt   21 (  0.35714  0.00000  0.35714), residuals and eigenvalues=
  5.47E-19  1.60E-19  6.62E-19  1.81E-19  9.63E-20  3.82E-19  2.86E-19  8.18E-19
  5.10E-19  4.92E-20  1.19E-12  2.72E-17
 -2.4998E+00 -1.2794E+00 -1.2783E+00 -1.2783E+00 -4.1823E-01  3.6855E-02
  1.2507E-01  1.2507E-01  5.0486E-01  5.2631E-01  6.5338E-01  8.2849E-01
  prteigrs : nnsclo,ikpt=  150   21 max resid (incl. the buffer)=  1.19319E-12
 Non-SCF case, kpt   22 (  0.37500  0.00000  0.37500), residuals and eigenvalues=
  6.61E-19  1.51E-19  6.86E-19  1.86E-19  9.29E-19  3.20E-19  3.23E-19  8.87E-19
  4.27E-19  7.87E-19  2.03E-12  7.12E-17
 -2.4998E+00 -1.2795E+00 -1.2783E+00 -1.2783E+00 -4.1596E-01  3.2995E-02
  1.2331E-01  1.2331E-01  5.1026E-01  5.2064E-01  6.4689E-01  8.3258E-01
  prteigrs : nnsclo,ikpt=  150   22 max resid (incl. the buffer)=  2.03132E-12
 Non-SCF case, kpt   23 (  0.39286  0.00000  0.39286), residuals and eigenvalues=
  3.54E-19  1.49E-19  6.63E-19  1.58E-19  5.16E-19  8.31E-19  1.28E-19  4.32E-19
  1.63E-19  5.89E-19  3.29E-16  7.53E-18
 -2.4998E+00 -1.2796E+00 -1.2784E+00 -1.2784E+00 -4.1393E-01  2.9626E-02
  1.2172E-01  1.2172E-01  5.1438E-01  5.1572E-01  6.4205E-01  8.3623E-01
  prteigrs : nnsclo,ikpt=  150   23 max resid (incl. the buffer)=  3.29341E-16
 Non-SCF case, kpt   24 (  0.41071  0.00000  0.41071), residuals and eigenvalues=
  2.77E-19  9.60E-19  9.67E-19  2.61E-19  8.26E-20  8.99E-20  8.11E-20  1.29E-19
  2.51E-19  4.66E-19  5.64E-14  2.34E-16
 -2.4998E+00 -1.2797E+00 -1.2784E+00 -1.2784E+00 -4.1217E-01  2.6826E-02
  1.2040E-01  1.2040E-01  5.1155E-01  5.1729E-01  6.3883E-01  8.3944E-01
  prteigrs : nnsclo,ikpt=  150   24 max resid (incl. the buffer)=  5.63647E-14
 Non-SCF case, kpt   25 (  0.42857  0.00000  0.42857), residuals and eigenvalues=
  8.85E-19  8.55E-19  8.54E-19  5.42E-19  1.64E-19  7.46E-19  6.68E-19  5.54E-19
  2.12E-19  9.47E-18  1.75E-10  2.39E-13
 -2.4997E+00 -1.2797E+00 -1.2784E+00 -1.2784E+00 -4.1069E-01  2.4574E-02
  1.1929E-01  1.1929E-01  5.0814E-01  5.1915E-01  6.3683E-01  8.4215E-01
  prteigrs : nnsclo,ikpt=  150   25 max resid (incl. the buffer)=  1.75370E-10
 Non-SCF case, kpt   26 (  0.44643  0.00000  0.44643), residuals and eigenvalues=
  7.88E-19  9.35E-19  1.64E-19  1.55E-19  3.88E-19  6.91E-19  6.17E-19  2.42E-19
  7.52E-20  9.30E-19  1.66E-13  8.56E-15
 -2.4997E+00 -1.2797E+00 -1.2784E+00 -1.2784E+00 -4.0953E-01  2.2815E-02
  1.1842E-01  1.1842E-01  5.0548E-01  5.2022E-01  6.3579E-01  8.4429E-01
  prteigrs : nnsclo,ikpt=  150   26 max resid (incl. the buffer)=  1.65972E-13
 Non-SCF case, kpt   27 (  0.46429  0.00000  0.46429), residuals and eigenvalues=
  3.20E-19  8.60E-19  9.28E-19  6.59E-19  7.36E-20  9.68E-19  5.49E-19  2.41E-19
  4.09E-19  2.70E-19  7.76E-15  8.15E-16
 -2.4997E+00 -1.2798E+00 -1.2784E+00 -1.2784E+00 -4.0869E-01  2.1565E-02
  1.1779E-01  1.1779E-01  5.0358E-01  5.2074E-01  6.3527E-01  8.4585E-01
  prteigrs : nnsclo,ikpt=  150   27 max resid (incl. the buffer)=  7.76117E-15
 Non-SCF case, kpt   28 (  0.48214  0.00000  0.48214), residuals and eigenvalues=
  2.96E-19  1.64E-19  4.47E-19  4.14E-19  8.41E-20  6.62E-19  9.96E-19  2.52E-19
  5.43E-19  9.70E-19  7.07E-15  1.05E-15
 -2.4997E+00 -1.2798E+00 -1.2785E+00 -1.2785E+00 -4.0818E-01  2.0815E-02
  1.1741E-01  1.1741E-01  5.0244E-01  5.2096E-01  6.3512E-01  8.4674E-01
  prteigrs : nnsclo,ikpt=  150   28 max resid (incl. the buffer)=  7.07499E-15
 Non-SCF case, kpt   29 (  0.50000  0.00000  0.50000), residuals and eigenvalues=
  9.10E-19  7.98E-19  5.92E-19  1.01E-19  9.04E-19  2.13E-19  2.95E-19  5.14E-19
  3.75E-19  1.17E-19  9.56E-12  1.63E-15
 -2.4997E+00 -1.2799E+00 -1.2785E+00 -1.2785E+00 -4.0800E-01  2.0516E-02
  1.1728E-01  1.1728E-01  5.0206E-01  5.2101E-01  6.3509E-01  8.4697E-01
  prteigrs : nnsclo,ikpt=  150   29 max resid (incl. the buffer)=  9.56178E-12
 Non-SCF case, kpt   30 (  0.50000  0.01786  0.51786), residuals and eigenvalues=
  5.93E-19  4.87E-19  9.58E-19  3.29E-19  2.97E-19  4.11E-19  1.51E-19  2.75E-19
  8.33E-19  8.18E-19  3.98E-13  1.34E-05
 -2.4997E+00 -1.2799E+00 -1.2785E+00 -1.2785E+00 -4.0798E-01  2.0738E-02
  1.1683E-01  1.1708E-01  5.0276E-01  5.2172E-01  6.3487E-01  8.4635E-01
  prteigrs : nnsclo,ikpt=  150   30 max resid (incl. the buffer)=  1.34066E-05
 Non-SCF case, kpt   31 (  0.50000  0.03571  0.53571), residuals and eigenvalues=
  2.90E-19  2.69E-19  1.45E-19  2.09E-19  2.32E-19  5.33E-19  1.92E-19  2.84E-19
  6.54E-19  9.61E-19  5.34E-13  2.12E-04
 -2.4997E+00 -1.2798E+00 -1.2785E+00 -1.2785E+00 -4.0790E-01  2.1439E-02
  1.1551E-01  1.1650E-01  5.0481E-01  5.2385E-01  6.3419E-01  8.4164E-01
  prteigrs : nnsclo,ikpt=  150   31 max resid (incl. the buffer)=  2.11669E-04
 Non-SCF case, kpt   32 (  0.50000  0.05357  0.55357), residuals and eigenvalues=
  6.56E-19  1.22E-19  3.52E-19  7.45E-19  6.73E-20  6.92E-19  2.92E-19  2.81E-19
  1.60E-19  3.72E-19  6.29E-13  4.59E-04
 -2.4997E+00 -1.2798E+00 -1.2785E+00 -1.2784E+00 -4.0777E-01  2.2541E-02
  1.1334E-01  1.1559E-01  5.0817E-01  5.2735E-01  6.3308E-01  8.3484E-01
  prteigrs : nnsclo,ikpt=  150   32 max resid (incl. the buffer)=  4.59196E-04
 Non-SCF case, kpt   33 (  0.50000  0.07143  0.57143), residuals and eigenvalues=
  5.84E-19  4.59E-19  3.83E-19  7.86E-19  1.91E-19  3.23E-19  5.00E-19  2.60E-19
  5.52E-20  8.29E-19  2.48E-16  3.03E-05
 -2.4997E+00 -1.2798E+00 -1.2785E+00 -1.2785E+00 -4.0761E-01  2.4079E-02
  1.1041E-01  1.1433E-01  5.1270E-01  5.3213E-01  6.3148E-01  8.2445E-01
  prteigrs : nnsclo,ikpt=  150   33 max resid (incl. the buffer)=  3.02871E-05
 Non-SCF case, kpt   34 (  0.50000  0.08929  0.58929), residuals and eigenvalues=
  4.12E-19  1.69E-19  1.34E-19  6.49E-19  8.24E-19  1.89E-19  8.93E-20  1.33E-19
  1.88E-19  9.41E-19  3.52E-16  7.98E-07
 -2.4997E+00 -1.2797E+00 -1.2786E+00 -1.2785E+00 -4.0741E-01  2.6046E-02
  1.0681E-01  1.1285E-01  5.1829E-01  5.3808E-01  6.2936E-01  8.1332E-01
  prteigrs : nnsclo,ikpt=  150   34 max resid (incl. the buffer)=  7.98050E-07
 Non-SCF case, kpt   35 (  0.50000  0.10714  0.60714), residuals and eigenvalues=
  4.70E-19  1.50E-19  2.49E-19  1.62E-19  1.72E-19  6.55E-19  4.08E-19  2.29E-19
  2.05E-19  5.21E-19  1.17E-16  2.74E-07
 -2.4997E+00 -1.2797E+00 -1.2786E+00 -1.2785E+00 -4.0718E-01  2.8424E-02
  1.0264E-01  1.1123E-01  5.2475E-01  5.4505E-01  6.2681E-01  8.0110E-01
  prteigrs : nnsclo,ikpt=  150   35 max resid (incl. the buffer)=  2.73857E-07
 Non-SCF case, kpt   36 (  0.50000  0.12500  0.62500), residuals and eigenvalues=
  8.40E-19  1.67E-19  4.35E-19  3.13E-19  1.23E-19  2.74E-19  1.84E-19  8.25E-19
  8.29E-19  8.60E-19  9.55E-17  3.41E-12
 -2.4997E+00 -1.2796E+00 -1.2787E+00 -1.2785E+00 -4.0695E-01  3.1237E-02
  9.7996E-02  1.0955E-01  5.3193E-01  5.5287E-01  6.2372E-01  7.8839E-01
  prteigrs : nnsclo,ikpt=  150   36 max resid (incl. the buffer)=  3.41452E-12
 Non-SCF case, kpt   37 (  0.50000  0.14286  0.64286), residuals and eigenvalues=
  4.81E-19  1.21E-19  3.87E-19  5.32E-19  1.02E-19  7.29E-19  3.02E-19  1.91E-19
  4.24E-19  1.60E-19  5.58E-17  1.99E-13
 -2.4997E+00 -1.2796E+00 -1.2787E+00 -1.2785E+00 -4.0671E-01  3.4428E-02
  9.2997E-02  1.0790E-01  5.3962E-01  5.6132E-01  6.2012E-01  7.7538E-01
  prteigrs : nnsclo,ikpt=  150   37 max resid (incl. the buffer)=  1.98969E-13
 Non-SCF case, kpt   38 (  0.50000  0.16071  0.66071), residuals and eigenvalues=
  9.21E-19  3.15E-19  7.49E-19  1.70E-19  1.99E-19  7.79E-19  2.03E-19  3.38E-19
  4.08E-19  3.39E-17  1.53E-12  2.11E-09
 -2.4997E+00 -1.2795E+00 -1.2788E+00 -1.2785E+00 -4.0649E-01  3.8009E-02
  8.7742E-02  1.0634E-01  5.4764E-01  5.7008E-01  6.1598E-01  7.6261E-01
  prteigrs : nnsclo,ikpt=  150   38 max resid (incl. the buffer)=  2.11339E-09
 Non-SCF case, kpt   39 (  0.50000  0.17857  0.67857), residuals and eigenvalues=
  7.79E-19  9.70E-19  2.62E-19  8.97E-19  9.72E-20  3.93E-19  2.03E-19  8.12E-19
  5.35E-19  1.41E-17  1.26E-15  2.21E-12
 -2.4997E+00 -1.2794E+00 -1.2788E+00 -1.2785E+00 -4.0628E-01  4.1938E-02
  8.2335E-02  1.0496E-01  5.5580E-01  5.7880E-01  6.1130E-01  7.5048E-01
  prteigrs : nnsclo,ikpt=  150   39 max resid (incl. the buffer)=  2.20870E-12
 Non-SCF case, kpt   40 (  0.50000  0.19643  0.69643), residuals and eigenvalues=
  6.82E-19  8.79E-19  1.85E-19  7.07E-19  9.36E-20  3.07E-19  7.04E-19  3.27E-19
  6.75E-19  5.04E-18  1.95E-16  4.97E-13
 -2.4997E+00 -1.2793E+00 -1.2789E+00 -1.2785E+00 -4.0611E-01  4.6202E-02
  7.6847E-02  1.0381E-01  5.6395E-01  5.8691E-01  6.0604E-01  7.3968E-01
  prteigrs : nnsclo,ikpt=  150   40 max resid (incl. the buffer)=  4.97100E-13
 Non-SCF case, kpt   41 (  0.50000  0.21429  0.71429), residuals and eigenvalues=
  3.76E-19  2.02E-19  3.97E-19  4.74E-19  3.22E-19  2.04E-19  1.79E-19  2.81E-19
  9.62E-19  4.51E-19  2.71E-18  2.46E-16
 -2.4997E+00 -1.2793E+00 -1.2790E+00 -1.2785E+00 -4.0599E-01  5.0769E-02
  7.1366E-02  1.0295E-01  5.7193E-01  5.9372E-01  6.0024E-01  7.3088E-01
  prteigrs : nnsclo,ikpt=  150   41 max resid (incl. the buffer)=  2.46035E-16
 Non-SCF case, kpt   42 (  0.50000  0.23214  0.73214), residuals and eigenvalues=
  4.66E-19  8.72E-19  2.51E-19  6.69E-19  1.30E-19  3.70E-19  1.46E-19  6.54E-19
  3.04E-19  2.09E-17  6.13E-18  8.19E-16
 -2.4997E+00 -1.2792E+00 -1.2790E+00 -1.2784E+00 -4.0591E-01  5.5629E-02
  6.5977E-02  1.0244E-01  5.7971E-01  5.9389E-01  5.9837E-01  7.2519E-01
  prteigrs : nnsclo,ikpt=  150   42 max resid (incl. the buffer)=  8.18844E-16
 Non-SCF case, kpt   43 (  0.50000  0.25000  0.75000), residuals and eigenvalues=
  7.24E-19  8.82E-19  1.43E-19  6.21E-19  2.82E-19  1.82E-19  6.25E-19  1.39E-19
  8.23E-19  8.07E-19  4.11E-19  2.46E-15
 -2.4997E+00 -1.2791E+00 -1.2791E+00 -1.2784E+00 -4.0588E-01  6.0709E-02
  6.0709E-02  1.0227E-01  5.8703E-01  5.8703E-01  6.0004E-01  7.2318E-01
  prteigrs : nnsclo,ikpt=  150   43 max resid (incl. the buffer)=  2.45805E-15
 Non-SCF case, kpt   44 (  0.48750  0.26250  0.75000), residuals and eigenvalues=
  7.62E-19  1.86E-19  1.39E-19  6.24E-19  2.78E-19  1.97E-19  7.09E-19  2.20E-19
  1.60E-19  5.41E-18  4.83E-19  2.29E-14
 -2.4997E+00 -1.2791E+00 -1.2790E+00 -1.2784E+00 -4.0592E-01  5.7226E-02
  6.4025E-02  1.0275E-01  5.8151E-01  5.9190E-01  5.9942E-01  7.2480E-01
  prteigrs : nnsclo,ikpt=  150   44 max resid (incl. the buffer)=  2.28613E-14
 Non-SCF case, kpt   45 (  0.47500  0.27500  0.75000), residuals and eigenvalues=
  1.67E-19  1.21E-19  1.80E-19  2.40E-19  7.46E-19  1.29E-19  1.92E-19  6.86E-19
  9.52E-19  1.39E-18  3.92E-19  3.31E-15
 -2.4997E+00 -1.2792E+00 -1.2790E+00 -1.2784E+00 -4.0603E-01  5.4035E-02
  6.6554E-02  1.0425E-01  5.7504E-01  5.9652E-01  5.9774E-01  7.2937E-01
  prteigrs : nnsclo,ikpt=  150   45 max resid (incl. the buffer)=  3.30557E-15
 Non-SCF case, kpt   46 (  0.46250  0.28750  0.75000), residuals and eigenvalues=
  3.44E-19  4.27E-19  1.46E-19  4.96E-19  7.08E-20  1.46E-19  2.40E-19  7.06E-19
  1.76E-19  5.40E-19  4.15E-19  6.74E-15
 -2.4997E+00 -1.2793E+00 -1.2790E+00 -1.2784E+00 -4.0619E-01  5.1181E-02
  6.8212E-02  1.0676E-01  5.6790E-01  5.9554E-01  6.0080E-01  7.3656E-01
  prteigrs : nnsclo,ikpt=  150   46 max resid (incl. the buffer)=  6.73629E-15
 Non-SCF case, kpt   47 (  0.45000  0.30000  0.75000), residuals and eigenvalues=
  4.91E-19  6.68E-19  2.35E-19  7.49E-19  3.25E-19  7.00E-19  3.52E-19  1.98E-19
  7.86E-19  6.73E-19  1.99E-18  1.75E-14
 -2.4997E+00 -1.2793E+00 -1.2790E+00 -1.2784E+00 -4.0638E-01  4.8683E-02
  6.9114E-02  1.1000E-01  5.6041E-01  5.9328E-01  6.0469E-01  7.4573E-01
  prteigrs : nnsclo,ikpt=  150   47 max resid (incl. the buffer)=  1.75453E-14
 Non-SCF case, kpt   48 (  0.43750  0.31250  0.75000), residuals and eigenvalues=
  3.83E-19  1.29E-19  1.12E-19  1.24E-19  4.11E-19  7.13E-20  6.99E-20  4.14E-19
  1.37E-19  2.20E-16  1.07E-14  6.55E-12
 -2.4997E+00 -1.2793E+00 -1.2790E+00 -1.2784E+00 -4.0657E-01  4.6532E-02
  6.9458E-02  1.1359E-01  5.5303E-01  5.9122E-01  6.0809E-01  7.5638E-01
  prteigrs : nnsclo,ikpt=  150   48 max resid (incl. the buffer)=  6.55171E-12
 Non-SCF case, kpt   49 (  0.42500  0.32500  0.75000), residuals and eigenvalues=
  2.32E-19  3.54E-19  3.82E-19  6.76E-19  5.11E-19  3.35E-19  8.98E-19  1.44E-19
  2.59E-19  9.59E-19  6.45E-18  5.22E-14
 -2.4997E+00 -1.2794E+00 -1.2790E+00 -1.2783E+00 -4.0675E-01  4.4760E-02
  6.9477E-02  1.1714E-01  5.4626E-01  5.8949E-01  6.1095E-01  7.6818E-01
  prteigrs : nnsclo,ikpt=  150   49 max resid (incl. the buffer)=  5.21605E-14
 Non-SCF case, kpt   50 (  0.41250  0.33750  0.75000), residuals and eigenvalues=
  2.90E-19  7.01E-19  4.79E-19  1.05E-19  2.26E-19  7.58E-19  1.03E-19  5.62E-19
  4.82E-19  2.27E-19  4.27E-16  1.74E-10
 -2.4997E+00 -1.2794E+00 -1.2790E+00 -1.2783E+00 -4.0691E-01  4.3368E-02
  6.9334E-02  1.2027E-01  5.4051E-01  5.8812E-01  6.1321E-01  7.8076E-01
  prteigrs : nnsclo,ikpt=  150   50 max resid (incl. the buffer)=  1.74253E-10
 Non-SCF case, kpt   51 (  0.40000  0.35000  0.75000), residuals and eigenvalues=
  3.11E-19  6.93E-19  3.70E-19  1.16E-19  2.13E-19  6.34E-19  7.87E-19  8.62E-19
  1.08E-19  3.72E-18  1.19E-14  8.39E-11
 -2.4997E+00 -1.2794E+00 -1.2790E+00 -1.2783E+00 -4.0703E-01  4.2370E-02
  6.9158E-02  1.2271E-01  5.3614E-01  5.8714E-01  6.1486E-01  7.9390E-01
  prteigrs : nnsclo,ikpt=  150   51 max resid (incl. the buffer)=  8.38956E-11
 Non-SCF case, kpt   52 (  0.38750  0.36250  0.75000), residuals and eigenvalues=
  6.96E-19  3.36E-19  1.80E-19  3.22E-19  2.66E-19  5.36E-19  1.61E-19  7.33E-19
  5.04E-19  1.08E-15  9.08E-13  7.36E-08
 -2.4997E+00 -1.2794E+00 -1.2790E+00 -1.2782E+00 -4.0710E-01  4.1770E-02
  6.9023E-02  1.2426E-01  5.3341E-01  5.8655E-01  6.1584E-01  8.0731E-01
  prteigrs : nnsclo,ikpt=  150   52 max resid (incl. the buffer)=  7.35585E-08
 Non-SCF case, kpt   53 (  0.37500  0.37500  0.75000), residuals and eigenvalues=
  8.53E-19  1.51E-19  2.99E-19  1.69E-19  3.77E-19  2.44E-19  7.12E-19  2.63E-19
  1.22E-19  1.11E-16  7.43E-14  1.25E-05
 -2.4997E+00 -1.2795E+00 -1.2790E+00 -1.2783E+00 -4.0713E-01  4.1554E-02
  6.8967E-02  1.2477E-01  5.3248E-01  5.8635E-01  6.1615E-01  8.1772E-01
  prteigrs : nnsclo,ikpt=  150   53 max resid (incl. the buffer)=  1.25169E-05
 Non-SCF case, kpt   54 (  0.36250  0.36250  0.72500), residuals and eigenvalues=
  9.70E-19  1.56E-19  2.61E-19  1.24E-19  4.85E-19  2.57E-19  4.34E-19  2.82E-19
  1.80E-19  5.37E-16  3.50E-15  3.91E-04
 -2.4997E+00 -1.2794E+00 -1.2791E+00 -1.2782E+00 -4.0735E-01  4.5769E-02
  6.2826E-02  1.2625E-01  5.3535E-01  5.9472E-01  6.1297E-01  8.1416E-01
  prteigrs : nnsclo,ikpt=  150   54 max resid (incl. the buffer)=  3.91416E-04
 Non-SCF case, kpt   55 (  0.35000  0.35000  0.70000), residuals and eigenvalues=
  8.86E-19  5.37E-19  1.47E-19  4.53E-19  5.83E-19  2.43E-19  4.66E-19  8.07E-19
  7.02E-19  2.15E-16  4.34E-19  5.38E-05
 -2.4997E+00 -1.2793E+00 -1.2792E+00 -1.2782E+00 -4.0772E-01  5.0310E-02
  5.7159E-02  1.2782E-01  5.3742E-01  6.0245E-01  6.0976E-01  8.1015E-01
  prteigrs : nnsclo,ikpt=  150   55 max resid (incl. the buffer)=  5.37866E-05
 Non-SCF case, kpt   56 (  0.33750  0.33750  0.67500), residuals and eigenvalues=
  3.48E-19  1.60E-19  5.05E-19  2.04E-19  3.12E-19  8.27E-19  6.13E-19  6.71E-19
  1.99E-19  2.34E-15  1.17E-15  1.74E-05
 -2.4997E+00 -1.2793E+00 -1.2792E+00 -1.2782E+00 -4.0829E-01  5.2108E-02
  5.5136E-02  1.2947E-01  5.3828E-01  6.0662E-01  6.0974E-01  8.0660E-01
  prteigrs : nnsclo,ikpt=  150   56 max resid (incl. the buffer)=  1.73682E-05
 Non-SCF case, kpt   57 (  0.32500  0.32500  0.65000), residuals and eigenvalues=
  8.66E-19  7.49E-19  1.26E-19  3.66E-19  1.86E-19  6.38E-19  2.06E-19  8.36E-20
  1.45E-19  3.02E-16  5.89E-17  1.09E-07
 -2.4997E+00 -1.2793E+00 -1.2791E+00 -1.2781E+00 -4.0907E-01  4.7773E-02
  6.0248E-02  1.3121E-01  5.3776E-01  6.0363E-01  6.1693E-01  8.0360E-01
  prteigrs : nnsclo,ikpt=  150   57 max resid (incl. the buffer)=  1.09457E-07
 Non-SCF case, kpt   58 (  0.31250  0.31250  0.62500), residuals and eigenvalues=
  8.73E-19  6.00E-19  7.21E-19  4.62E-19  2.38E-19  2.79E-19  1.78E-19  3.01E-19
  2.00E-19  5.94E-17  1.38E-17  4.63E-09
 -2.4998E+00 -1.2794E+00 -1.2791E+00 -1.2781E+00 -4.1007E-01  4.4237E-02
  6.5596E-02  1.3300E-01  5.3561E-01  6.0084E-01  6.2435E-01  8.0109E-01
  prteigrs : nnsclo,ikpt=  150   58 max resid (incl. the buffer)=  4.63368E-09
 Non-SCF case, kpt   59 (  0.30000  0.30000  0.60000), residuals and eigenvalues=
  4.15E-19  9.40E-19  7.60E-19  2.12E-19  2.96E-19  1.43E-19  7.65E-19  9.37E-19
  1.44E-19  8.88E-19  1.04E-18  1.53E-09
 -2.4998E+00 -1.2794E+00 -1.2790E+00 -1.2780E+00 -4.1132E-01  4.1560E-02
  7.1133E-02  1.3485E-01  5.3183E-01  5.9834E-01  6.3222E-01  7.9910E-01
  prteigrs : nnsclo,ikpt=  150   59 max resid (incl. the buffer)=  1.52808E-09
 Non-SCF case, kpt   60 (  0.28750  0.28750  0.57500), residuals and eigenvalues=
  4.25E-19  9.48E-19  9.07E-19  2.44E-19  3.84E-19  1.51E-19  9.58E-19  7.45E-20
  4.47E-19  5.31E-19  5.04E-19  2.90E-10
 -2.4998E+00 -1.2795E+00 -1.2789E+00 -1.2780E+00 -4.1282E-01  3.9806E-02
  7.6855E-02  1.3673E-01  5.2663E-01  5.9622E-01  6.4064E-01  7.9774E-01
  prteigrs : nnsclo,ikpt=  150   60 max resid (incl. the buffer)=  2.89597E-10
 Non-SCF case, kpt   61 (  0.27500  0.27500  0.55000), residuals and eigenvalues=
  2.25E-19  1.85E-19  1.45E-19  9.97E-19  2.25E-19  8.10E-20  5.46E-19  4.49E-19
  3.16E-19  5.08E-19  1.36E-17  5.75E-09
 -2.4998E+00 -1.2795E+00 -1.2788E+00 -1.2779E+00 -4.1457E-01  3.9003E-02
  8.2708E-02  1.3864E-01  5.2019E-01  5.9451E-01  6.4961E-01  7.9703E-01
  prteigrs : nnsclo,ikpt=  150   61 max resid (incl. the buffer)=  5.74780E-09
 Non-SCF case, kpt   62 (  0.26250  0.26250  0.52500), residuals and eigenvalues=
  4.13E-19  8.59E-19  1.06E-19  3.51E-19  5.12E-19  1.82E-19  1.38E-19  1.39E-19
  6.54E-19  7.90E-19  7.74E-18  3.00E-13
 -2.4998E+00 -1.2794E+00 -1.2787E+00 -1.2779E+00 -4.1657E-01  3.9176E-02
  8.8648E-02  1.4055E-01  5.1268E-01  5.9338E-01  6.5912E-01  7.9702E-01
  prteigrs : nnsclo,ikpt=  150   62 max resid (incl. the buffer)=  3.00221E-13
 Non-SCF case, kpt   63 (  0.25000  0.25000  0.50000), residuals and eigenvalues=
  4.91E-19  1.48E-19  1.02E-19  2.36E-19  6.42E-19  1.16E-19  5.49E-19  4.00E-19
  3.26E-19  2.45E-19  8.76E-16  1.23E-09
 -2.4998E+00 -1.2795E+00 -1.2786E+00 -1.2779E+00 -4.1880E-01  4.0314E-02
  9.4619E-02  1.4246E-01  5.0427E-01  5.9287E-01  6.6899E-01  7.9767E-01
  prteigrs : nnsclo,ikpt=  150   63 max resid (incl. the buffer)=  1.22869E-09
 Non-SCF case, kpt   64 (  0.23750  0.23750  0.47500), residuals and eigenvalues=
  2.52E-19  9.21E-19  8.77E-19  8.67E-19  1.18E-19  3.07E-19  6.99E-19  1.95E-19
  5.28E-19  1.96E-19  1.00E-17  7.05E-10
 -2.4998E+00 -1.2794E+00 -1.2785E+00 -1.2778E+00 -4.2123E-01  4.2424E-02
  1.0064E-01  1.4438E-01  4.9529E-01  5.9305E-01  6.7915E-01  7.9936E-01
  prteigrs : nnsclo,ikpt=  150   64 max resid (incl. the buffer)=  7.04594E-10
 Non-SCF case, kpt   65 (  0.22500  0.22500  0.45000), residuals and eigenvalues=
  2.47E-19  5.55E-19  1.23E-19  1.34E-19  1.15E-19  3.44E-19  1.64E-19  4.68E-19
  1.78E-19  2.30E-19  2.02E-16  2.72E-09
 -2.4998E+00 -1.2793E+00 -1.2784E+00 -1.2777E+00 -4.2384E-01  4.5475E-02
  1.0656E-01  1.4625E-01  4.8580E-01  5.9400E-01  6.8944E-01  8.0165E-01
  prteigrs : nnsclo,ikpt=  150   65 max resid (incl. the buffer)=  2.72113E-09
 Non-SCF case, kpt   66 (  0.21250  0.21250  0.42500), residuals and eigenvalues=
  8.36E-19  5.57E-19  5.70E-19  4.03E-19  3.51E-19  5.81E-19  3.55E-19  2.89E-19
  1.46E-19  1.36E-18  3.75E-13  7.76E-06
 -2.4999E+00 -1.2793E+00 -1.2783E+00 -1.2777E+00 -4.2661E-01  4.9435E-02
  1.1238E-01  1.4808E-01  4.7595E-01  5.9579E-01  6.9973E-01  8.0478E-01
  prteigrs : nnsclo,ikpt=  150   66 max resid (incl. the buffer)=  7.75862E-06
 Non-SCF case, kpt   67 (  0.20000  0.20000  0.40000), residuals and eigenvalues=
  4.46E-19  2.42E-19  4.55E-19  1.87E-19  1.32E-19  1.14E-19  4.47E-19  1.19E-19
  1.32E-19  9.11E-19  5.50E-13  9.01E-07
 -2.4999E+00 -1.2792E+00 -1.2782E+00 -1.2777E+00 -4.2949E-01  5.4258E-02
  1.1804E-01  1.4985E-01  4.6579E-01  5.9850E-01  7.0980E-01  8.0870E-01
  prteigrs : nnsclo,ikpt=  150   67 max resid (incl. the buffer)=  9.00584E-07
 Non-SCF case, kpt   68 (  0.18750  0.18750  0.37500), residuals and eigenvalues=
  4.97E-19  4.43E-19  5.70E-19  6.03E-19  1.26E-19  3.18E-19  3.42E-19  4.24E-19
  2.91E-19  6.10E-19  9.61E-12  5.02E-06
 -2.4999E+00 -1.2791E+00 -1.2782E+00 -1.2777E+00 -4.3244E-01  5.9893E-02
  1.2351E-01  1.5155E-01  4.5542E-01  6.0218E-01  7.1946E-01  8.1345E-01
  prteigrs : nnsclo,ikpt=  150   68 max resid (incl. the buffer)=  5.01876E-06
 Non-SCF case, kpt   69 (  0.17500  0.17500  0.35000), residuals and eigenvalues=
  4.79E-19  5.51E-19  8.40E-19  7.18E-19  1.24E-19  1.48E-19  5.72E-19  3.69E-19
  3.81E-19  9.39E-18  8.22E-11  3.57E-06
 -2.4999E+00 -1.2790E+00 -1.2781E+00 -1.2776E+00 -4.3544E-01  6.6271E-02
  1.2875E-01  1.5319E-01  4.4490E-01  6.0687E-01  7.2849E-01  8.1892E-01
  prteigrs : nnsclo,ikpt=  150   69 max resid (incl. the buffer)=  3.57215E-06
 Non-SCF case, kpt   70 (  0.16250  0.16250  0.32500), residuals and eigenvalues=
  6.28E-19  9.05E-20  1.92E-19  8.26E-19  2.71E-19  6.42E-19  6.45E-19  2.51E-19
  2.71E-19  5.10E-18  1.61E-10  2.11E-05
 -2.4999E+00 -1.2788E+00 -1.2780E+00 -1.2776E+00 -4.3842E-01  7.3332E-02
  1.3369E-01  1.5474E-01  4.3432E-01  6.1264E-01  7.3663E-01  8.0851E-01
  prteigrs : nnsclo,ikpt=  150   70 max resid (incl. the buffer)=  2.11239E-05
 Non-SCF case, kpt   71 (  0.15000  0.15000  0.30000), residuals and eigenvalues=
  8.21E-19  4.31E-19  1.30E-19  2.21E-19  3.05E-19  2.88E-19  9.17E-19  8.48E-19
  4.57E-19  1.19E-16  7.30E-10  1.01E-06
 -2.5000E+00 -1.2787E+00 -1.2779E+00 -1.2776E+00 -4.4136E-01  8.0991E-02
  1.3833E-01  1.5620E-01  4.2370E-01  6.1951E-01  7.4362E-01  7.9906E-01
  prteigrs : nnsclo,ikpt=  150   71 max resid (incl. the buffer)=  1.01298E-06
 Non-SCF case, kpt   72 (  0.13750  0.13750  0.27500), residuals and eigenvalues=
  9.39E-19  5.50E-19  2.18E-19  2.58E-19  3.76E-19  3.40E-19  2.01E-19  3.89E-20
  1.92E-19  8.71E-17  1.48E-10  1.57E-08
 -2.5000E+00 -1.2785E+00 -1.2779E+00 -1.2776E+00 -4.4422E-01  8.9155E-02
  1.4262E-01  1.5756E-01  4.1308E-01  6.2749E-01  7.4917E-01  7.9039E-01
  prteigrs : nnsclo,ikpt=  150   72 max resid (incl. the buffer)=  1.57158E-08
 Non-SCF case, kpt   73 (  0.12500  0.12500  0.25000), residuals and eigenvalues=
  7.27E-19  1.63E-19  7.90E-19  1.67E-19  4.44E-19  4.32E-19  4.23E-19  1.85E-19
  5.58E-19  4.52E-19  1.03E-10  2.94E-10
 -2.5000E+00 -1.2785E+00 -1.2778E+00 -1.2776E+00 -4.4696E-01  9.7700E-02
  1.4655E-01  1.5881E-01  4.0250E-01  6.3657E-01  7.5302E-01  7.8247E-01
  prteigrs : nnsclo,ikpt=  150   73 max resid (incl. the buffer)=  2.93717E-10
 Non-SCF case, kpt   74 (  0.11250  0.11250  0.22500), residuals and eigenvalues=
  9.90E-19  9.99E-19  9.35E-19  1.09E-19  4.54E-19  1.23E-19  2.95E-19  2.39E-19
  5.43E-19  7.20E-18  1.25E-10  3.74E-10
 -2.5000E+00 -1.2783E+00 -1.2778E+00 -1.2775E+00 -4.4954E-01  1.0656E-01
  1.5011E-01  1.5996E-01  3.9209E-01  6.4671E-01  7.5531E-01  7.7531E-01
  prteigrs : nnsclo,ikpt=  150   74 max resid (incl. the buffer)=  3.74032E-10
 Non-SCF case, kpt   75 (  0.10000  0.10000  0.20000), residuals and eigenvalues=
  3.01E-19  4.97E-19  8.62E-20  9.88E-20  5.42E-19  1.35E-19  3.40E-19  4.32E-19
  2.80E-19  3.48E-19  1.04E-14  6.37E-15
 -2.5000E+00 -1.2782E+00 -1.2777E+00 -1.2775E+00 -4.5194E-01  1.1555E-01
  1.5327E-01  1.6100E-01  3.8186E-01  6.5787E-01  7.5602E-01  7.6889E-01
  prteigrs : nnsclo,ikpt=  150   75 max resid (incl. the buffer)=  1.04439E-14
 Non-SCF case, kpt   76 (  0.08750  0.08750  0.17500), residuals and eigenvalues=
  8.60E-19  2.11E-19  5.19E-19  1.67E-19  1.98E-19  2.17E-19  2.93E-19  5.85E-19
  1.78E-19  4.45E-17  1.04E-13  1.30E-14
 -2.5000E+00 -1.2780E+00 -1.2776E+00 -1.2775E+00 -4.5413E-01  1.2454E-01
  1.5608E-01  1.6193E-01  3.7197E-01  6.6995E-01  7.5545E-01  7.6323E-01
  prteigrs : nnsclo,ikpt=  150   76 max resid (incl. the buffer)=  1.04160E-13
 Non-SCF case, kpt   77 (  0.07500  0.07500  0.15000), residuals and eigenvalues=
  9.17E-19  4.37E-19  2.32E-19  5.56E-19  3.14E-19  2.02E-19  2.32E-19  6.77E-19
  8.66E-19  4.98E-18  1.32E-14  2.72E-15
 -2.5000E+00 -1.2779E+00 -1.2776E+00 -1.2775E+00 -4.5607E-01  1.3330E-01
  1.5847E-01  1.6273E-01  3.6252E-01  6.8277E-01  7.5395E-01  7.5833E-01
  prteigrs : nnsclo,ikpt=  150   77 max resid (incl. the buffer)=  1.31588E-14
 Non-SCF case, kpt   78 (  0.06250  0.06250  0.12500), residuals and eigenvalues=
  3.35E-19  5.53E-19  1.11E-19  9.51E-19  8.39E-19  4.46E-19  5.29E-19  7.94E-19
  8.06E-19  2.42E-18  6.36E-16  1.87E-16
 -2.5001E+00 -1.2778E+00 -1.2775E+00 -1.2775E+00 -4.5775E-01  1.4160E-01
  1.6048E-01  1.6342E-01  3.5372E-01  6.9611E-01  7.5192E-01  7.5418E-01
  prteigrs : nnsclo,ikpt=  150   78 max resid (incl. the buffer)=  6.35658E-16
 Non-SCF case, kpt   79 (  0.05000  0.05000  0.10000), residuals and eigenvalues=
  2.83E-19  7.92E-19  1.42E-19  9.86E-20  2.84E-19  1.39E-19  7.93E-19  8.86E-19
  1.97E-19  2.65E-18  9.93E-17  9.35E-17
 -2.5001E+00 -1.2777E+00 -1.2775E+00 -1.2775E+00 -4.5916E-01  1.4916E-01
  1.6211E-01  1.6398E-01  3.4582E-01  7.0955E-01  7.4975E-01  7.5078E-01
  prteigrs : nnsclo,ikpt=  150   79 max resid (incl. the buffer)=  9.93278E-17
 Non-SCF case, kpt   80 (  0.03750  0.03750  0.07500), residuals and eigenvalues=
  6.80E-19  9.32E-19  2.05E-19  1.34E-19  1.93E-19  3.73E-19  3.65E-19  7.58E-19
  1.42E-19  1.66E-18  1.02E-17  2.54E-18
 -2.5001E+00 -1.2776E+00 -1.2775E+00 -1.2775E+00 -4.6026E-01  1.5562E-01
  1.6336E-01  1.6441E-01  3.3913E-01  7.2244E-01  7.4773E-01  7.4814E-01
  prteigrs : nnsclo,ikpt=  150   80 max resid (incl. the buffer)=  1.01619E-17
 Non-SCF case, kpt   81 (  0.02500  0.02500  0.05000), residuals and eigenvalues=
  6.04E-19  2.59E-19  2.44E-19  5.09E-19  1.28E-19  4.47E-19  6.50E-19  4.40E-19
  3.96E-20  1.56E-19  4.74E-19  8.07E-19
 -2.5001E+00 -1.2775E+00 -1.2774E+00 -1.2774E+00 -4.6106E-01  1.6070E-01
  1.6428E-01  1.6474E-01  3.3398E-01  7.3372E-01  7.4613E-01  7.4625E-01
 Non-SCF case, kpt   82 (  0.01250  0.01250  0.02500), residuals and eigenvalues=
  7.73E-19  3.41E-19  3.95E-19  3.96E-19  2.59E-19  6.74E-19  7.36E-19  7.71E-19
  4.43E-19  5.82E-20  1.53E-19  8.02E-19
 -2.5001E+00 -1.2774E+00 -1.2774E+00 -1.2774E+00 -4.6155E-01  1.6389E-01
  1.6482E-01  1.6493E-01  3.3072E-01  7.4176E-01  7.4510E-01  7.4512E-01
 Non-SCF case, kpt   83 (  0.00000  0.00000  0.00000), residuals and eigenvalues=
  7.68E-19  6.16E-19  2.08E-19  8.54E-19  2.18E-19  1.78E-19  7.49E-19  8.84E-19
  1.30E-19  1.22E-19  1.16E-18  4.75E-19
 -2.5001E+00 -1.2774E+00 -1.2774E+00 -1.2774E+00 -4.6171E-01  1.6500E-01
  1.6500E-01  1.6500E-01  3.2959E-01  7.4474E-01  7.4474E-01  7.4474E-01
  prteigrs : nnsclo,ikpt=  150   83 max resid (incl. the buffer)=  1.15943E-18
 Non-SCF case, kpt   84 (  0.02083  0.02083  0.02083), residuals and eigenvalues=
  2.06E-19  3.79E-19  2.89E-19  5.67E-19  9.37E-19  8.28E-19  7.24E-19  2.23E-19
  3.70E-19  6.67E-19  7.97E-19  3.39E-19
 -2.5001E+00 -1.2774E+00 -1.2774E+00 -1.2774E+00 -4.6154E-01  1.6381E-01
  1.6489E-01  1.6489E-01  3.3076E-01  7.4164E-01  7.4513E-01  7.4513E-01
 Non-SCF case, kpt   85 (  0.04167  0.04167  0.04167), residuals and eigenvalues=
  8.52E-19  1.48E-19  2.50E-19  2.21E-19  5.06E-19  2.52E-19  2.75E-19  5.61E-19
  4.45E-20  1.71E-19  2.34E-19  4.24E-19
 -2.5001E+00 -1.2775E+00 -1.2774E+00 -1.2774E+00 -4.6104E-01  1.6033E-01
  1.6457E-01  1.6457E-01  3.3415E-01  7.3329E-01  7.4627E-01  7.4627E-01
 Non-SCF case, kpt   86 (  0.06250  0.06250  0.06250), residuals and eigenvalues=
  1.56E-19  4.68E-19  1.29E-19  9.94E-19  8.28E-19  5.50E-19  4.87E-19  7.74E-19
  3.17E-20  6.20E-20  3.58E-19  1.73E-19
 -2.5001E+00 -1.2776E+00 -1.2774E+00 -1.2774E+00 -4.6020E-01  1.5489E-01
  1.6406E-01  1.6406E-01  3.3947E-01  7.2168E-01  7.4812E-01  7.4812E-01
 Non-SCF case, kpt   87 (  0.08333  0.08333  0.08333), residuals and eigenvalues=
  9.04E-19  1.83E-19  2.28E-19  3.99E-19  5.56E-19  2.82E-19  4.78E-20  7.35E-19
  1.70E-19  4.76E-19  1.96E-16  3.92E-17
 -2.5001E+00 -1.2777E+00 -1.2775E+00 -1.2775E+00 -4.5905E-01  1.4787E-01
  1.6334E-01  1.6334E-01  3.4633E-01  7.0851E-01  7.5061E-01  7.5061E-01
  prteigrs : nnsclo,ikpt=  150   87 max resid (incl. the buffer)=  1.96203E-16
 Non-SCF case, kpt   88 (  0.10417  0.10417  0.10417), residuals and eigenvalues=
  8.93E-19  2.37E-19  7.90E-19  3.93E-19  5.30E-19  1.24E-19  5.64E-20  5.13E-19
  2.57E-19  5.36E-19  6.37E-17  2.74E-16
 -2.5001E+00 -1.2778E+00 -1.2775E+00 -1.2775E+00 -4.5759E-01  1.3962E-01
  1.6247E-01  1.6247E-01  3.5434E-01  6.9490E-01  7.5362E-01  7.5362E-01
  prteigrs : nnsclo,ikpt=  150   88 max resid (incl. the buffer)=  2.73718E-16
 Non-SCF case, kpt   89 (  0.12500  0.12500  0.12500), residuals and eigenvalues=
  8.68E-19  1.54E-19  5.33E-19  2.53E-19  4.59E-19  4.75E-19  3.27E-19  1.39E-19
  4.37E-19  2.78E-19  3.33E-16  1.35E-15
 -2.5000E+00 -1.2780E+00 -1.2775E+00 -1.2775E+00 -4.5584E-01  1.3049E-01
  1.6144E-01  1.6144E-01  3.6313E-01  6.8151E-01  7.5699E-01  7.5699E-01
  prteigrs : nnsclo,ikpt=  150   89 max resid (incl. the buffer)=  1.35335E-15
 Non-SCF case, kpt   90 (  0.14583  0.14583  0.14583), residuals and eigenvalues=
  8.96E-19  9.02E-19  4.04E-19  5.10E-19  8.71E-19  2.71E-19  2.38E-19  2.44E-19
  3.15E-19  1.42E-18  8.66E-15  1.90E-15
 -2.5000E+00 -1.2781E+00 -1.2776E+00 -1.2776E+00 -4.5382E-01  1.2075E-01
  1.6025E-01  1.6025E-01  3.7236E-01  6.6878E-01  7.6052E-01  7.6052E-01
  prteigrs : nnsclo,ikpt=  150   90 max resid (incl. the buffer)=  8.65877E-15
 Non-SCF case, kpt   91 (  0.16667  0.16667  0.16667), residuals and eigenvalues=
  8.10E-19  7.92E-20  3.44E-19  3.71E-19  8.58E-19  2.15E-19  2.62E-19  1.96E-19
  4.39E-19  1.07E-18  5.74E-14  9.82E-15
 -2.5000E+00 -1.2782E+00 -1.2776E+00 -1.2776E+00 -4.5156E-01  1.1063E-01
  1.5898E-01  1.5898E-01  3.8178E-01  6.5698E-01  7.6397E-01  7.6397E-01
  prteigrs : nnsclo,ikpt=  150   91 max resid (incl. the buffer)=  5.73960E-14
 Non-SCF case, kpt   92 (  0.18750  0.18750  0.18750), residuals and eigenvalues=
  7.27E-19  9.66E-19  6.79E-20  7.77E-19  5.97E-19  8.87E-19  9.62E-19  3.78E-19
  1.28E-19  1.59E-17  1.37E-13  4.23E-13
 -2.5000E+00 -1.2784E+00 -1.2776E+00 -1.2776E+00 -4.4907E-01  1.0031E-01
  1.5761E-01  1.5761E-01  3.9111E-01  6.4629E-01  7.6705E-01  7.6705E-01
  prteigrs : nnsclo,ikpt=  150   92 max resid (incl. the buffer)=  4.22973E-13
 Non-SCF case, kpt   93 (  0.20833  0.20833  0.20833), residuals and eigenvalues=
  6.79E-19  5.02E-19  7.69E-19  4.93E-19  5.00E-19  6.24E-19  7.79E-19  2.34E-19
  1.31E-19  1.13E-18  1.09E-13  1.66E-12
 -2.5000E+00 -1.2786E+00 -1.2776E+00 -1.2776E+00 -4.4641E-01  8.9976E-02
  1.5619E-01  1.5619E-01  4.0017E-01  6.3686E-01  7.6949E-01  7.6949E-01
  prteigrs : nnsclo,ikpt=  150   93 max resid (incl. the buffer)=  1.65892E-12
 Non-SCF case, kpt   94 (  0.22917  0.22917  0.22917), residuals and eigenvalues=
  2.25E-19  2.08E-19  2.40E-19  9.06E-19  7.61E-19  1.36E-19  9.91E-19  6.49E-19
  3.04E-19  3.33E-19  1.24E-13  1.14E-12
 -2.5000E+00 -1.2788E+00 -1.2776E+00 -1.2776E+00 -4.4359E-01  7.9746E-02
  1.5474E-01  1.5474E-01  4.0876E-01  6.2880E-01  7.7106E-01  7.7106E-01
  prteigrs : nnsclo,ikpt=  150   94 max resid (incl. the buffer)=  1.13885E-12
 Non-SCF case, kpt   95 (  0.25000  0.25000  0.25000), residuals and eigenvalues=
  8.26E-19  1.36E-19  1.24E-19  3.04E-19  4.81E-19  6.30E-20  3.89E-19  3.04E-19
  3.18E-19  9.76E-17  3.31E-13  5.06E-13
 -2.4999E+00 -1.2789E+00 -1.2777E+00 -1.2777E+00 -4.4067E-01  6.9727E-02
  1.5326E-01  1.5326E-01  4.1665E-01  6.2220E-01  7.7166E-01  7.7166E-01
  prteigrs : nnsclo,ikpt=  150   95 max resid (incl. the buffer)=  5.06066E-13
 Non-SCF case, kpt   96 (  0.27083  0.27083  0.27083), residuals and eigenvalues=
  7.81E-19  3.24E-19  9.90E-20  2.19E-19  6.07E-19  4.95E-19  3.09E-19  2.23E-19
  2.01E-19  4.30E-18  3.04E-13  4.62E-13
 -2.4999E+00 -1.2791E+00 -1.2777E+00 -1.2777E+00 -4.3769E-01  6.0042E-02
  1.5182E-01  1.5182E-01  4.2375E-01  6.1702E-01  7.7133E-01  7.7133E-01
  prteigrs : nnsclo,ikpt=  150   96 max resid (incl. the buffer)=  4.61779E-13
 Non-SCF case, kpt   97 (  0.29167  0.29167  0.29167), residuals and eigenvalues=
  3.15E-19  2.33E-19  9.41E-19  4.81E-19  1.22E-19  3.44E-19  1.67E-19  3.18E-19
  1.54E-19  2.43E-18  3.82E-13  2.69E-12
 -2.4999E+00 -1.2793E+00 -1.2777E+00 -1.2777E+00 -4.3470E-01  5.0791E-02
  1.5041E-01  1.5041E-01  4.2992E-01  6.1332E-01  7.7023E-01  7.7023E-01
  prteigrs : nnsclo,ikpt=  150   97 max resid (incl. the buffer)=  2.68794E-12
 Non-SCF case, kpt   98 (  0.31250  0.31250  0.31250), residuals and eigenvalues=
  6.88E-19  5.06E-19  4.24E-19  3.11E-19  3.18E-19  3.26E-19  4.41E-19  5.32E-19
  1.22E-19  3.93E-16  8.95E-14  1.81E-13
 -2.4999E+00 -1.2794E+00 -1.2777E+00 -1.2777E+00 -4.3175E-01  4.2068E-02
  1.4907E-01  1.4907E-01  4.3512E-01  6.1095E-01  7.6858E-01  7.6858E-01
  prteigrs : nnsclo,ikpt=  150   98 max resid (incl. the buffer)=  1.80576E-13
 Non-SCF case, kpt   99 (  0.33333  0.33333  0.33333), residuals and eigenvalues=
  1.92E-19  1.98E-19  1.20E-19  1.01E-19  6.12E-19  5.62E-19  1.66E-19  9.63E-19
  2.86E-19  3.62E-19  1.50E-16  2.61E-16
 -2.4999E+00 -1.2795E+00 -1.2777E+00 -1.2777E+00 -4.2889E-01  3.3970E-02
  1.4781E-01  1.4781E-01  4.3936E-01  6.0983E-01  7.6659E-01  7.6659E-01
  prteigrs : nnsclo,ikpt=  150   99 max resid (incl. the buffer)=  2.61241E-16
 Non-SCF case, kpt  100 (  0.35417  0.35417  0.35417), residuals and eigenvalues=
  2.89E-19  4.44E-19  7.59E-19  1.26E-19  1.07E-19  5.10E-19  1.15E-19  4.81E-19
  7.97E-19  6.33E-17  1.72E-14  4.28E-14
 -2.4999E+00 -1.2797E+00 -1.2777E+00 -1.2777E+00 -4.2619E-01  2.6564E-02
  1.4665E-01  1.4665E-01  4.4263E-01  6.0972E-01  7.6442E-01  7.6442E-01
  prteigrs : nnsclo,ikpt=  150  100 max resid (incl. the buffer)=  4.28292E-14
 Non-SCF case, kpt  101 (  0.37500  0.37500  0.37500), residuals and eigenvalues=
  1.84E-19  1.18E-19  5.83E-19  2.45E-19  1.62E-19  8.21E-19  6.49E-19  3.78E-19
  1.59E-19  8.09E-19  4.82E-17  9.23E-17
 -2.4999E+00 -1.2798E+00 -1.2777E+00 -1.2777E+00 -4.2370E-01  1.9947E-02
  1.4559E-01  1.4559E-01  4.4507E-01  6.1038E-01  7.6228E-01  7.6228E-01
  prteigrs : nnsclo,ikpt=  150  101 max resid (incl. the buffer)=  9.23106E-17
 Non-SCF case, kpt  102 (  0.39583  0.39583  0.39583), residuals and eigenvalues=
  1.95E-19  1.03E-19  6.47E-19  2.15E-19  1.28E-19  7.09E-19  8.50E-19  4.65E-19
  1.38E-19  1.92E-18  1.47E-16  1.21E-16
 -2.4998E+00 -1.2800E+00 -1.2778E+00 -1.2778E+00 -4.2147E-01  1.4200E-02
  1.4469E-01  1.4469E-01  4.4683E-01  6.1155E-01  7.6031E-01  7.6031E-01
  prteigrs : nnsclo,ikpt=  150  102 max resid (incl. the buffer)=  1.47471E-16
 Non-SCF case, kpt  103 (  0.41667  0.41667  0.41667), residuals and eigenvalues=
  5.83E-19  1.18E-19  2.71E-19  5.33E-19  2.41E-19  1.93E-19  2.55E-19  4.63E-19
  9.06E-19  4.17E-15  2.30E-14  5.28E-14
 -2.4998E+00 -1.2800E+00 -1.2778E+00 -1.2778E+00 -4.1957E-01  9.3981E-03
  1.4393E-01  1.4393E-01  4.4809E-01  6.1296E-01  7.5859E-01  7.5859E-01
  prteigrs : nnsclo,ikpt=  150  103 max resid (incl. the buffer)=  5.27879E-14
 Non-SCF case, kpt  104 (  0.43750  0.43750  0.43750), residuals and eigenvalues=
  6.40E-19  1.15E-19  2.86E-19  5.70E-19  3.47E-19  2.28E-19  3.38E-19  4.66E-19
  5.85E-19  6.97E-15  1.72E-15  1.13E-13
 -2.4998E+00 -1.2801E+00 -1.2778E+00 -1.2778E+00 -4.1803E-01  5.5871E-03
  1.4333E-01  1.4333E-01  4.4888E-01  6.1434E-01  7.5719E-01  7.5719E-01
  prteigrs : nnsclo,ikpt=  150  104 max resid (incl. the buffer)=  1.12927E-13
 Non-SCF case, kpt  105 (  0.45833  0.45833  0.45833), residuals and eigenvalues=
  1.95E-19  1.91E-19  2.01E-19  1.72E-19  2.03E-19  3.39E-19  3.80E-19  2.39E-19
  3.40E-19  6.62E-17  1.05E-16  5.60E-17
 -2.4998E+00 -1.2802E+00 -1.2778E+00 -1.2778E+00 -4.1691E-01  2.8244E-03
  1.4289E-01  1.4289E-01  4.4936E-01  6.1548E-01  7.5615E-01  7.5615E-01
  prteigrs : nnsclo,ikpt=  150  105 max resid (incl. the buffer)=  1.04728E-16
 Non-SCF case, kpt  106 (  0.47917  0.47917  0.47917), residuals and eigenvalues=
  1.77E-19  1.74E-19  1.76E-19  1.55E-19  2.20E-19  2.64E-19  3.02E-19  1.50E-19
  2.04E-19  7.08E-17  2.04E-16  4.27E-16
 -2.4998E+00 -1.2802E+00 -1.2778E+00 -1.2778E+00 -4.1622E-01  1.1526E-03
  1.4263E-01  1.4263E-01  4.4962E-01  6.1623E-01  7.5552E-01  7.5552E-01
  prteigrs : nnsclo,ikpt=  150  106 max resid (incl. the buffer)=  4.27383E-16
 Non-SCF case, kpt  107 (  0.50000  0.50000  0.50000), residuals and eigenvalues=
  2.84E-19  2.85E-19  1.54E-19  4.29E-19  5.28E-19  3.95E-20  4.73E-19  5.09E-19
  2.45E-19  1.97E-17  3.71E-17  3.58E-16
 -2.4998E+00 -1.2801E+00 -1.2777E+00 -1.2777E+00 -4.1598E-01  6.0425E-04
  1.4255E-01  1.4255E-01  4.4976E-01  6.1655E-01  7.5537E-01  7.5537E-01
  prteigrs : nnsclo,ikpt=  150  107 max resid (incl. the buffer)=  3.58192E-16
 Non-SCF case, kpt  108 (  0.50735  0.48529  0.50735), residuals and eigenvalues=
  7.14E-19  1.14E-19  6.10E-19  7.01E-19  3.03E-19  1.28E-19  5.35E-19  2.24E-19
  8.24E-20  2.51E-15  6.05E-15  2.26E-14
 -2.4998E+00 -1.2802E+00 -1.2778E+00 -1.2778E+00 -4.1592E-01  8.4524E-04
  1.4185E-01  1.4242E-01  4.5061E-01  6.1636E-01  7.5272E-01  7.5571E-01
  prteigrs : nnsclo,ikpt=  150  108 max resid (incl. the buffer)=  2.25506E-14
 Non-SCF case, kpt  109 (  0.51471  0.47059  0.51471), residuals and eigenvalues=
  8.07E-19  2.44E-19  2.08E-19  7.95E-20  9.74E-19  1.13E-19  4.86E-19  1.83E-19
  8.74E-19  7.43E-14  6.19E-14  3.65E-13
 -2.4998E+00 -1.2802E+00 -1.2778E+00 -1.2778E+00 -4.1574E-01  1.5802E-03
  1.3984E-01  1.4209E-01  4.5318E-01  6.1589E-01  7.4568E-01  7.5699E-01
  prteigrs : nnsclo,ikpt=  150  109 max resid (incl. the buffer)=  3.65463E-13
 Non-SCF case, kpt  110 (  0.52206  0.45588  0.52206), residuals and eigenvalues=
  5.40E-19  2.86E-19  8.53E-19  1.31E-19  1.78E-19  7.94E-19  4.52E-19  3.01E-19
  3.88E-19  1.06E-14  5.35E-15  2.52E-14
 -2.4998E+00 -1.2802E+00 -1.2779E+00 -1.2778E+00 -4.1544E-01  2.8060E-03
  1.3661E-01  1.4154E-01  4.5739E-01  6.1514E-01  7.3546E-01  7.5912E-01
  prteigrs : nnsclo,ikpt=  150  110 max resid (incl. the buffer)=  2.51813E-14
 Non-SCF case, kpt  111 (  0.52941  0.44118  0.52941), residuals and eigenvalues=
  6.36E-19  1.99E-19  4.43E-19  5.50E-19  8.02E-19  8.99E-19  2.48E-19  3.67E-19
  1.61E-19  4.58E-15  6.38E-16  4.20E-14
 -2.4998E+00 -1.2801E+00 -1.2779E+00 -1.2778E+00 -4.1503E-01  4.5095E-03
  1.3227E-01  1.4080E-01  4.6303E-01  6.1411E-01  7.2327E-01  7.6201E-01
  prteigrs : nnsclo,ikpt=  150  111 max resid (incl. the buffer)=  4.20494E-14
 Non-SCF case, kpt  112 (  0.53676  0.42647  0.53676), residuals and eigenvalues=
  4.50E-19  2.21E-19  1.52E-19  4.11E-19  2.89E-19  4.59E-19  3.32E-19  4.34E-19
  5.79E-19  5.74E-15  3.43E-16  3.68E-13
 -2.4998E+00 -1.2801E+00 -1.2780E+00 -1.2779E+00 -4.1453E-01  6.6708E-03
  1.2701E-01  1.3988E-01  4.6988E-01  6.1281E-01  7.1011E-01  7.6559E-01
  prteigrs : nnsclo,ikpt=  150  112 max resid (incl. the buffer)=  3.67689E-13
 Non-SCF case, kpt  113 (  0.54412  0.41176  0.54412), residuals and eigenvalues=
  7.75E-19  2.16E-19  1.58E-19  1.36E-19  1.84E-19  7.83E-19  1.09E-19  3.50E-19
  1.86E-19  8.52E-15  9.37E-16  1.59E-12
 -2.4998E+00 -1.2800E+00 -1.2781E+00 -1.2779E+00 -4.1393E-01  9.2816E-03
  1.2102E-01  1.3880E-01  4.7770E-01  6.1126E-01  6.9674E-01  7.6977E-01
  prteigrs : nnsclo,ikpt=  150  113 max resid (incl. the buffer)=  1.58591E-12
 Non-SCF case, kpt  114 (  0.55147  0.39706  0.55147), residuals and eigenvalues=
  8.77E-19  4.01E-19  5.15E-19  2.97E-19  8.76E-20  1.30E-19  2.72E-19  6.93E-19
  7.34E-19  1.27E-14  8.42E-17  9.09E-12
 -2.4998E+00 -1.2800E+00 -1.2782E+00 -1.2779E+00 -4.1326E-01  1.2310E-02
  1.1448E-01  1.3759E-01  4.8617E-01  6.0948E-01  6.8357E-01  7.7442E-01
  prteigrs : nnsclo,ikpt=  150  114 max resid (incl. the buffer)=  9.08803E-12
 Non-SCF case, kpt  115 (  0.55882  0.38235  0.55882), residuals and eigenvalues=
  8.76E-19  7.93E-19  4.86E-19  8.70E-19  1.99E-19  4.64E-19  7.42E-19  5.82E-19
  5.76E-19  3.53E-15  8.70E-17  8.89E-11
 -2.4998E+00 -1.2799E+00 -1.2783E+00 -1.2779E+00 -4.1252E-01  1.5731E-02
  1.0758E-01  1.3627E-01  4.9502E-01  6.0756E-01  6.7092E-01  7.7941E-01
  prteigrs : nnsclo,ikpt=  150  115 max resid (incl. the buffer)=  8.89094E-11
 Non-SCF case, kpt  116 (  0.56618  0.36765  0.56618), residuals and eigenvalues=
  2.88E-19  3.10E-19  2.27E-19  2.16E-19  4.20E-19  1.33E-19  9.98E-20  4.45E-19
  9.77E-20  1.39E-16  5.99E-19  6.11E-11
 -2.4998E+00 -1.2798E+00 -1.2784E+00 -1.2780E+00 -4.1175E-01  1.9504E-02
  1.0050E-01  1.3489E-01  5.0387E-01  6.0554E-01  6.5903E-01  7.8460E-01
  prteigrs : nnsclo,ikpt=  150  116 max resid (incl. the buffer)=  6.11229E-11
 Non-SCF case, kpt  117 (  0.57353  0.35294  0.57353), residuals and eigenvalues=
  4.85E-19  2.04E-19  5.31E-19  6.51E-19  2.70E-19  8.40E-19  6.84E-19  6.16E-19
  4.46E-19  3.34E-17  4.09E-19  4.90E-11
 -2.4998E+00 -1.2798E+00 -1.2785E+00 -1.2780E+00 -4.1097E-01  2.3575E-02
  9.3398E-02  1.3346E-01  5.1234E-01  6.0353E-01  6.4809E-01  7.8978E-01
  prteigrs : nnsclo,ikpt=  150  117 max resid (incl. the buffer)=  4.90422E-11
 Non-SCF case, kpt  118 (  0.58088  0.33824  0.58088), residuals and eigenvalues=
  9.66E-19  2.18E-19  3.00E-19  2.03E-19  2.55E-19  5.82E-19  6.22E-19  6.65E-19
  5.85E-20  1.52E-13  2.26E-14  3.08E-08
 -2.4998E+00 -1.2797E+00 -1.2786E+00 -1.2780E+00 -4.1019E-01  2.7885E-02
  8.6478E-02  1.3203E-01  5.1998E-01  6.0169E-01  6.3825E-01  7.9490E-01
  prteigrs : nnsclo,ikpt=  150  118 max resid (incl. the buffer)=  3.08465E-08
 Non-SCF case, kpt  119 (  0.58824  0.32353  0.58824), residuals and eigenvalues=
  4.09E-19  2.52E-19  1.41E-19  1.92E-19  1.94E-19  4.40E-19  2.41E-19  2.81E-19
  8.39E-19  1.16E-13  4.08E-17  2.65E-06
 -2.4998E+00 -1.2796E+00 -1.2788E+00 -1.2781E+00 -4.0944E-01  3.2300E-02
  7.9900E-02  1.3061E-01  5.2634E-01  6.0014E-01  6.2965E-01  7.9977E-01
  prteigrs : nnsclo,ikpt=  150  119 max resid (incl. the buffer)=  2.64520E-06
 Non-SCF case, kpt  120 (  0.59559  0.30882  0.59559), residuals and eigenvalues=
  6.69E-19  7.64E-19  2.83E-19  2.27E-19  3.41E-19  7.50E-19  9.40E-20  2.02E-19
  4.65E-19  8.56E-14  2.34E-14  1.60E-06
 -2.4997E+00 -1.2795E+00 -1.2789E+00 -1.2781E+00 -4.0875E-01  3.6633E-02
  7.3962E-02  1.2924E-01  5.3101E-01  5.9888E-01  6.2254E-01  8.0433E-01
  prteigrs : nnsclo,ikpt=  150  120 max resid (incl. the buffer)=  1.60145E-06
 Non-SCF case, kpt  121 (  0.60294  0.29412  0.60294), residuals and eigenvalues=
  4.54E-19  2.29E-19  1.69E-19  3.80E-19  2.69E-19  5.14E-19  5.43E-19  6.07E-19
  1.90E-19  2.62E-14  2.63E-14  8.70E-08
 -2.4997E+00 -1.2794E+00 -1.2790E+00 -1.2781E+00 -4.0814E-01  4.0477E-02
  6.9109E-02  1.2796E-01  5.3372E-01  5.9746E-01  6.1742E-01  8.0843E-01
  prteigrs : nnsclo,ikpt=  150  121 max resid (incl. the buffer)=  8.69612E-08
 Non-SCF case, kpt  122 (  0.61029  0.27941  0.61029), residuals and eigenvalues=
  7.05E-19  2.93E-19  9.18E-19  1.42E-19  2.76E-19  9.46E-19  1.52E-19  2.31E-19
  7.27E-19  2.96E-15  3.08E-16  2.07E-05
 -2.4997E+00 -1.2794E+00 -1.2790E+00 -1.2782E+00 -4.0765E-01  4.3023E-02
  6.6193E-02  1.2676E-01  5.3460E-01  5.9501E-01  6.1484E-01  8.1206E-01
  prteigrs : nnsclo,ikpt=  150  122 max resid (incl. the buffer)=  2.06968E-05
 Non-SCF case, kpt  123 (  0.61765  0.26471  0.61765), residuals and eigenvalues=
  7.15E-19  5.31E-19  5.97E-19  3.00E-19  3.10E-19  9.81E-19  1.61E-19  2.86E-19
  3.14E-19  2.09E-18  5.03E-13  8.15E-08
 -2.4997E+00 -1.2794E+00 -1.2791E+00 -1.2782E+00 -4.0731E-01  4.3314E-02
  6.6207E-02  1.2569E-01  5.3403E-01  5.9116E-01  6.1472E-01  8.1510E-01
  prteigrs : nnsclo,ikpt=  150  123 max resid (incl. the buffer)=  8.15374E-08
 Non-SCF case, kpt  124 (  0.62500  0.25000  0.62500), residuals and eigenvalues=
  3.73E-19  7.83E-19  1.46E-19  3.67E-19  3.90E-19  5.46E-20  1.94E-19  1.82E-19
  4.25E-19  6.60E-17  4.49E-12  2.27E-05
 -2.4997E+00 -1.2795E+00 -1.2790E+00 -1.2783E+00 -4.0713E-01  4.1554E-02
  6.8967E-02  1.2477E-01  5.3248E-01  5.8635E-01  6.1615E-01  8.1806E-01
  prteigrs : nnsclo,ikpt=  150  124 max resid (incl. the buffer)=  2.26764E-05
 Non-SCF case, kpt  125 (  0.61250  0.25000  0.63750), residuals and eigenvalues=
  7.69E-19  2.11E-19  1.22E-19  6.68E-19  5.65E-19  8.11E-19  1.58E-19  2.61E-19
  8.71E-20  8.87E-15  6.03E-12  1.84E-05
 -2.4997E+00 -1.2794E+00 -1.2790E+00 -1.2782E+00 -4.0710E-01  4.1770E-02
  6.9023E-02  1.2426E-01  5.3341E-01  5.8655E-01  6.1584E-01  8.0732E-01
  prteigrs : nnsclo,ikpt=  150  125 max resid (incl. the buffer)=  1.84272E-05
 Non-SCF case, kpt  126 (  0.60000  0.25000  0.65000), residuals and eigenvalues=
  2.68E-19  2.32E-19  2.93E-19  1.02E-19  1.88E-19  4.40E-19  7.03E-19  8.65E-20
  2.42E-19  1.10E-17  7.04E-15  3.17E-09
 -2.4997E+00 -1.2794E+00 -1.2790E+00 -1.2783E+00 -4.0703E-01  4.2370E-02
  6.9158E-02  1.2271E-01  5.3614E-01  5.8714E-01  6.1486E-01  7.9390E-01
  prteigrs : nnsclo,ikpt=  150  126 max resid (incl. the buffer)=  3.16561E-09
 Non-SCF case, kpt  127 (  0.58750  0.25000  0.66250), residuals and eigenvalues=
  2.64E-19  1.96E-19  4.33E-19  1.81E-19  1.73E-19  4.45E-19  2.00E-19  8.12E-19
  4.02E-19  4.64E-18  1.83E-15  1.76E-10
 -2.4997E+00 -1.2794E+00 -1.2790E+00 -1.2783E+00 -4.0691E-01  4.3368E-02
  6.9334E-02  1.2027E-01  5.4051E-01  5.8812E-01  6.1321E-01  7.8076E-01
  prteigrs : nnsclo,ikpt=  150  127 max resid (incl. the buffer)=  1.76340E-10
 Non-SCF case, kpt  128 (  0.57500  0.25000  0.67500), residuals and eigenvalues=
  3.71E-19  7.70E-19  3.71E-19  2.07E-19  1.41E-19  1.36E-19  7.08E-19  6.55E-19
  7.18E-19  7.38E-17  7.54E-15  2.06E-11
 -2.4997E+00 -1.2794E+00 -1.2790E+00 -1.2783E+00 -4.0675E-01  4.4760E-02
  6.9477E-02  1.1714E-01  5.4626E-01  5.8949E-01  6.1095E-01  7.6818E-01
  prteigrs : nnsclo,ikpt=  150  128 max resid (incl. the buffer)=  2.05861E-11
 Non-SCF case, kpt  129 (  0.56250  0.25000  0.68750), residuals and eigenvalues=
  2.11E-19  9.48E-20  9.29E-19  5.89E-19  1.37E-19  1.50E-19  2.37E-19  5.75E-19
  6.82E-19  9.18E-19  3.22E-18  1.14E-14
 -2.4997E+00 -1.2793E+00 -1.2790E+00 -1.2784E+00 -4.0657E-01  4.6532E-02
  6.9458E-02  1.1359E-01  5.5303E-01  5.9122E-01  6.0809E-01  7.5638E-01
  prteigrs : nnsclo,ikpt=  150  129 max resid (incl. the buffer)=  1.13589E-14
 Non-SCF case, kpt  130 (  0.55000  0.25000  0.70000), residuals and eigenvalues=
  9.42E-19  1.66E-19  1.99E-19  1.45E-19  2.38E-19  2.59E-19  6.66E-19  1.25E-19
  6.96E-19  3.56E-17  2.71E-15  1.63E-12
 -2.4997E+00 -1.2793E+00 -1.2790E+00 -1.2784E+00 -4.0638E-01  4.8683E-02
  6.9114E-02  1.1000E-01  5.6041E-01  5.9328E-01  6.0469E-01  7.4573E-01
  prteigrs : nnsclo,ikpt=  150  130 max resid (incl. the buffer)=  1.63000E-12
 Non-SCF case, kpt  131 (  0.53750  0.25000  0.71250), residuals and eigenvalues=
  9.57E-19  9.92E-19  2.41E-19  2.53E-19  9.48E-19  1.84E-19  1.65E-19  2.26E-19
  9.10E-19  8.93E-18  3.28E-17  2.51E-13
 -2.4997E+00 -1.2793E+00 -1.2790E+00 -1.2784E+00 -4.0619E-01  5.1181E-02
  6.8212E-02  1.0676E-01  5.6790E-01  5.9554E-01  6.0080E-01  7.3656E-01
  prteigrs : nnsclo,ikpt=  150  131 max resid (incl. the buffer)=  2.51277E-13
 Non-SCF case, kpt  132 (  0.52500  0.25000  0.72500), residuals and eigenvalues=
  7.79E-19  1.05E-19  6.63E-19  2.80E-19  9.87E-19  5.56E-19  3.84E-19  1.28E-19
  6.93E-19  1.06E-16  5.74E-18  4.14E-15
 -2.4997E+00 -1.2792E+00 -1.2790E+00 -1.2784E+00 -4.0603E-01  5.4035E-02
  6.6554E-02  1.0425E-01  5.7504E-01  5.9652E-01  5.9774E-01  7.2937E-01
  prteigrs : nnsclo,ikpt=  150  132 max resid (incl. the buffer)=  4.13892E-15
 Non-SCF case, kpt  133 (  0.51250  0.25000  0.73750), residuals and eigenvalues=
  6.69E-19  6.73E-19  5.26E-19  6.62E-19  5.99E-19  7.31E-19  2.24E-19  2.11E-19
  4.67E-19  4.32E-18  1.15E-18  2.58E-14
 -2.4997E+00 -1.2791E+00 -1.2790E+00 -1.2784E+00 -4.0592E-01  5.7226E-02
  6.4025E-02  1.0275E-01  5.8151E-01  5.9190E-01  5.9942E-01  7.2480E-01
  prteigrs : nnsclo,ikpt=  150  133 max resid (incl. the buffer)=  2.57578E-14
 Non-SCF case, kpt  134 (  0.50000  0.25000  0.75000), residuals and eigenvalues=
  7.24E-19  8.82E-19  1.43E-19  6.21E-19  2.82E-19  1.82E-19  6.25E-19  1.39E-19
  8.23E-19  8.07E-19  4.11E-19  2.46E-15
 -2.4997E+00 -1.2791E+00 -1.2791E+00 -1.2784E+00 -4.0588E-01  6.0709E-02
  6.0709E-02  1.0227E-01  5.8703E-01  5.8703E-01  6.0004E-01  7.2318E-01
  prteigrs : nnsclo,ikpt=  150  134 max resid (incl. the buffer)=  2.45805E-15
 Non-SCF case, kpt  135 (  0.50000  0.26250  0.73750), residuals and eigenvalues=
  1.85E-19  1.72E-19  1.31E-19  7.76E-20  1.56E-19  2.00E-19  1.02E-19  7.28E-20
  5.90E-19  8.97E-19  4.87E-19  3.00E-18
 -2.4997E+00 -1.2791E+00 -1.2791E+00 -1.2784E+00 -4.0594E-01  5.9879E-02
  6.1116E-02  1.0298E-01  5.8582E-01  5.8726E-01  6.0052E-01  7.2439E-01
  prteigrs : nnsclo,ikpt=  150  135 max resid (incl. the buffer)=  2.99655E-18
 Non-SCF case, kpt  136 (  0.50000  0.27500  0.72500), residuals and eigenvalues=
  2.03E-19  5.11E-19  3.46E-19  2.09E-19  5.25E-19  6.80E-19  7.61E-20  4.09E-19
  7.93E-19  3.31E-19  5.14E-19  2.71E-19
 -2.4997E+00 -1.2791E+00 -1.2791E+00 -1.2784E+00 -4.0614E-01  5.7569E-02
  6.2334E-02  1.0495E-01  5.8234E-01  5.8796E-01  6.0196E-01  7.2784E-01
 Non-SCF case, kpt  137 (  0.50000  0.28750  0.71250), residuals and eigenvalues=
  3.04E-19  1.35E-19  6.62E-19  1.24E-19  4.91E-19  4.90E-19  1.40E-19  9.21E-20
  2.87E-19  7.79E-19  5.51E-19  3.44E-18
 -2.4997E+00 -1.2792E+00 -1.2790E+00 -1.2784E+00 -4.0646E-01  5.4181E-02
  6.4360E-02  1.0778E-01  5.7694E-01  5.8908E-01  6.0439E-01  7.3314E-01
  prteigrs : nnsclo,ikpt=  150  137 max resid (incl. the buffer)=  3.43812E-18
 Non-SCF case, kpt  138 (  0.50000  0.30000  0.70000), residuals and eigenvalues=
  8.65E-19  1.80E-19  1.92E-19  4.18E-19  7.35E-19  1.23E-19  6.17E-19  1.12E-19
  6.00E-20  3.54E-18  3.06E-19  8.01E-15
 -2.4997E+00 -1.2793E+00 -1.2790E+00 -1.2783E+00 -4.0690E-01  5.0093E-02
  6.7153E-02  1.1111E-01  5.7000E-01  5.9057E-01  6.0785E-01  7.3981E-01
  prteigrs : nnsclo,ikpt=  150  138 max resid (incl. the buffer)=  8.00730E-15
 Non-SCF case, kpt  139 (  0.50000  0.31250  0.68750), residuals and eigenvalues=
  3.67E-19  2.38E-19  7.84E-19  9.43E-19  7.98E-20  2.11E-19  5.44E-19  4.81E-19
  5.10E-19  3.64E-19  2.62E-19  1.08E-16
 -2.4997E+00 -1.2794E+00 -1.2789E+00 -1.2783E+00 -4.0744E-01  4.5614E-02
  7.0683E-02  1.1464E-01  5.6194E-01  5.9237E-01  6.1237E-01  7.4725E-01
  prteigrs : nnsclo,ikpt=  150  139 max resid (incl. the buffer)=  1.07908E-16
 Non-SCF case, kpt  140 (  0.50000  0.32500  0.67500), residuals and eigenvalues=
  9.96E-19  2.84E-19  9.28E-19  2.51E-19  7.52E-19  9.76E-19  8.41E-20  3.18E-19
  4.56E-19  7.86E-18  4.71E-18  1.68E-13
 -2.4997E+00 -1.2794E+00 -1.2789E+00 -1.2782E+00 -4.0806E-01  4.0941E-02
  7.4881E-02  1.1819E-01  5.5307E-01  5.9440E-01  6.1796E-01  7.5480E-01
  prteigrs : nnsclo,ikpt=  150  140 max resid (incl. the buffer)=  1.68307E-13
 Non-SCF case, kpt  141 (  0.50000  0.33750  0.66250), residuals and eigenvalues=
  5.36E-19  4.74E-19  2.12E-19  1.58E-19  2.57E-19  2.69E-19  8.42E-19  1.15E-19
  1.47E-19  1.15E-16  1.87E-18  2.38E-12
 -2.4997E+00 -1.2795E+00 -1.2788E+00 -1.2782E+00 -4.0876E-01  3.6232E-02
  7.9686E-02  1.2161E-01  5.4364E-01  5.9658E-01  6.2463E-01  7.6192E-01
  prteigrs : nnsclo,ikpt=  150  141 max resid (incl. the buffer)=  2.38362E-12
 Non-SCF case, kpt  142 (  0.50000  0.35000  0.65000), residuals and eigenvalues=
  6.78E-19  9.10E-20  4.06E-19  1.68E-19  1.03E-19  5.58E-19  1.74E-19  7.26E-19
  3.63E-19  5.89E-17  2.57E-19  4.15E-12
 -2.4998E+00 -1.2796E+00 -1.2787E+00 -1.2781E+00 -4.0951E-01  3.1602E-02
  8.5042E-02  1.2485E-01  5.3390E-01  5.9888E-01  6.3241E-01  7.6798E-01
  prteigrs : nnsclo,ikpt=  150  142 max resid (incl. the buffer)=  4.15224E-12
 Non-SCF case, kpt  143 (  0.50000  0.36250  0.63750), residuals and eigenvalues=
  6.06E-19  8.47E-20  3.64E-19  1.53E-19  8.95E-20  3.25E-19  1.60E-19  5.39E-19
  1.85E-19  2.41E-16  3.53E-19  7.82E-12
 -2.4998E+00 -1.2797E+00 -1.2786E+00 -1.2781E+00 -4.1029E-01  2.7124E-02
  9.0832E-02  1.2783E-01  5.2397E-01  6.0120E-01  6.4123E-01  7.7240E-01
  prteigrs : nnsclo,ikpt=  150  143 max resid (incl. the buffer)=  7.81599E-12
 Non-SCF case, kpt  144 (  0.50000  0.37500  0.62500), residuals and eigenvalues=
  4.09E-19  2.42E-19  7.14E-19  2.93E-19  7.81E-20  3.33E-19  2.88E-19  7.20E-19
  4.60E-19  9.40E-16  4.19E-18  3.61E-12
 -2.4998E+00 -1.2798E+00 -1.2785E+00 -1.2780E+00 -4.1108E-01  2.2869E-02
  9.6963E-02  1.3055E-01  5.1401E-01  6.0349E-01  6.5107E-01  7.7480E-01
  prteigrs : nnsclo,ikpt=  150  144 max resid (incl. the buffer)=  3.60916E-12
 Non-SCF case, kpt  145 (  0.50000  0.38750  0.61250), residuals and eigenvalues=
  2.23E-19  5.59E-19  1.28E-19  2.27E-19  8.97E-19  4.29E-19  1.54E-19  2.29E-19
  8.43E-19  1.68E-18  1.60E-19  1.05E-13
 -2.4998E+00 -1.2798E+00 -1.2784E+00 -1.2780E+00 -4.1187E-01  1.8881E-02
  1.0330E-01  1.3297E-01  5.0417E-01  6.0570E-01  6.6184E-01  7.7515E-01
  prteigrs : nnsclo,ikpt=  150  145 max resid (incl. the buffer)=  1.05134E-13
 Non-SCF case, kpt  146 (  0.50000  0.40000  0.60000), residuals and eigenvalues=
  2.21E-19  2.14E-19  1.82E-19  3.02E-19  4.10E-19  1.03E-19  2.32E-19  3.25E-19
  4.27E-19  2.42E-18  8.23E-19  7.22E-14
 -2.4998E+00 -1.2799E+00 -1.2783E+00 -1.2779E+00 -4.1263E-01  1.5213E-02
  1.0971E-01  1.3509E-01  4.9460E-01  6.0778E-01  6.7346E-01  7.7378E-01
  prteigrs : nnsclo,ikpt=  150  146 max resid (incl. the buffer)=  7.21825E-14
 Non-SCF case, kpt  147 (  0.50000  0.41250  0.58750), residuals and eigenvalues=
  5.54E-19  1.69E-19  2.56E-19  1.11E-19  1.06E-19  2.31E-19  2.02E-19  1.20E-19
  5.79E-19  6.88E-16  2.81E-17  1.54E-12
 -2.4998E+00 -1.2800E+00 -1.2782E+00 -1.2779E+00 -4.1334E-01  1.1901E-02
  1.1604E-01  1.3692E-01  4.8548E-01  6.0970E-01  6.8577E-01  7.7121E-01
  prteigrs : nnsclo,ikpt=  150  147 max resid (incl. the buffer)=  1.54283E-12
 Non-SCF case, kpt  148 (  0.50000  0.42500  0.57500), residuals and eigenvalues=
  5.99E-19  6.48E-19  5.83E-19  5.93E-19  2.40E-19  1.30E-19  3.16E-19  1.42E-19
  6.41E-19  4.40E-15  1.54E-16  3.73E-13
 -2.4998E+00 -1.2800E+00 -1.2781E+00 -1.2779E+00 -4.1400E-01  8.9737E-03
  1.2212E-01  1.3847E-01  4.7697E-01  6.1143E-01  6.9859E-01  7.6804E-01
  prteigrs : nnsclo,ikpt=  150  148 max resid (incl. the buffer)=  3.73019E-13
 Non-SCF case, kpt  149 (  0.50000  0.43750  0.56250), residuals and eigenvalues=
  7.30E-19  3.20E-19  5.17E-19  4.29E-19  4.81E-19  2.25E-19  2.32E-19  1.15E-19
  2.29E-19  2.25E-14  1.97E-16  7.68E-13
 -2.4998E+00 -1.2801E+00 -1.2780E+00 -1.2778E+00 -4.1458E-01  6.4556E-03
  1.2773E-01  1.3975E-01  4.6928E-01  6.1295E-01  7.1156E-01  7.6470E-01
  prteigrs : nnsclo,ikpt=  150  149 max resid (incl. the buffer)=  7.68417E-13
 Non-SCF case, kpt  150 (  0.50000  0.45000  0.55000), residuals and eigenvalues=
  4.01E-19  3.41E-19  5.03E-19  4.06E-19  6.90E-19  2.14E-19  1.12E-19  8.03E-19
  4.15E-19  2.55E-14  9.54E-16  6.63E-14
 -2.4998E+00 -1.2801E+00 -1.2779E+00 -1.2778E+00 -4.1507E-01  4.3680E-03
  1.3271E-01  1.4077E-01  4.6260E-01  6.1421E-01  7.2431E-01  7.6158E-01
  prteigrs : nnsclo,ikpt=  150  150 max resid (incl. the buffer)=  6.63197E-14
 Non-SCF case, kpt  151 (  0.50000  0.46250  0.53750), residuals and eigenvalues=
  6.35E-19  3.56E-19  5.64E-19  2.08E-19  2.96E-19  5.03E-19  5.16E-19  9.67E-19
  1.61E-19  7.96E-15  3.83E-15  4.27E-14
 -2.4998E+00 -1.2801E+00 -1.2779E+00 -1.2778E+00 -4.1546E-01  2.7269E-03
  1.3685E-01  1.4155E-01  4.5713E-01  6.1520E-01  7.3613E-01  7.5894E-01
  prteigrs : nnsclo,ikpt=  150  151 max resid (incl. the buffer)=  4.26910E-14
 Non-SCF case, kpt  152 (  0.50000  0.47500  0.52500), residuals and eigenvalues=
  3.58E-19  9.75E-19  2.73E-19  1.24E-19  8.14E-20  5.25E-20  5.87E-19  6.25E-19
  3.53E-19  7.44E-15  7.12E-15  6.01E-14
 -2.4998E+00 -1.2802E+00 -1.2778E+00 -1.2778E+00 -4.1575E-01  1.5464E-03
  1.3995E-01  1.4211E-01  4.5307E-01  6.1593E-01  7.4602E-01  7.5698E-01
  prteigrs : nnsclo,ikpt=  150  152 max resid (incl. the buffer)=  6.01260E-14
 Non-SCF case, kpt  153 (  0.50000  0.48750  0.51250), residuals and eigenvalues=
  3.42E-19  9.37E-19  2.30E-19  9.76E-19  7.52E-20  6.45E-20  1.37E-19  3.11E-19
  2.81E-19  7.16E-15  4.35E-14  8.88E-14
 -2.4998E+00 -1.2802E+00 -1.2778E+00 -1.2778E+00 -4.1592E-01  8.3456E-04
  1.4188E-01  1.4244E-01  4.5057E-01  6.1636E-01  7.5281E-01  7.5575E-01
  prteigrs : nnsclo,ikpt=  150  153 max resid (incl. the buffer)=  8.87680E-14
 Non-SCF case, kpt  154 (  0.50000  0.50000  0.50000), residuals and eigenvalues=
  2.84E-19  2.85E-19  1.54E-19  4.29E-19  5.28E-19  3.95E-20  4.73E-19  5.09E-19
  2.45E-19  1.97E-17  3.71E-17  3.58E-16
 -2.4998E+00 -1.2801E+00 -1.2777E+00 -1.2777E+00 -4.1598E-01  6.0425E-04
  1.4255E-01  1.4255E-01  4.4976E-01  6.1655E-01  7.5537E-01  7.5537E-01
  prteigrs : nnsclo,ikpt=  150  154 max resid (incl. the buffer)=  3.58192E-16
 Non-SCF case, kpt  155 (  0.49265  0.49265  0.51471), residuals and eigenvalues=
  9.38E-19  6.92E-19  2.99E-19  1.26E-19  2.22E-19  9.16E-19  6.60E-19  4.08E-19
  2.08E-19  6.85E-15  1.06E-14  3.28E-14
 -2.4998E+00 -1.2802E+00 -1.2778E+00 -1.2778E+00 -4.1592E-01  8.4524E-04
  1.4185E-01  1.4242E-01  4.5061E-01  6.1636E-01  7.5272E-01  7.5571E-01
  prteigrs : nnsclo,ikpt=  150  155 max resid (incl. the buffer)=  3.28398E-14
 Non-SCF case, kpt  156 (  0.48529  0.48529  0.52941), residuals and eigenvalues=
  2.62E-19  1.17E-19  1.19E-19  1.53E-19  9.98E-19  9.45E-19  6.09E-19  5.22E-19
  1.04E-19  3.40E-15  3.20E-15  1.82E-14
 -2.4998E+00 -1.2802E+00 -1.2778E+00 -1.2778E+00 -4.1574E-01  1.5802E-03
[...]
   0.53101    0.59888    0.62254    0.80433
 kpt# 168, nband= 12, wtk=  1.00000, kpt=  0.3971  0.3971  0.7059 (reduced coord)
  -2.49974   -1.27944   -1.27896   -1.27815   -0.40814    0.04048    0.06911    0.12796
   0.53372    0.59746    0.61742    0.80843
 kpt# 169, nband= 12, wtk=  1.00000, kpt=  0.3897  0.3897  0.7206 (reduced coord)
  -2.49974   -1.27941   -1.27904   -1.27819   -0.40765    0.04302    0.06619    0.12676
   0.53460    0.59501    0.61484    0.81254
 kpt# 170, nband= 12, wtk=  1.00000, kpt=  0.3824  0.3824  0.7353 (reduced coord)
  -2.49973   -1.27943   -1.27905   -1.27825   -0.40731    0.04331    0.06621    0.12569
   0.53403    0.59116    0.61472    0.81568
 kpt# 171, nband= 12, wtk=  1.00000, kpt=  0.3750  0.3750  0.7500 (reduced coord)
  -2.49973   -1.27946   -1.27901   -1.27828   -0.40713    0.04155    0.06897    0.12477
   0.53248    0.58635    0.61615    0.81772
 kpt# 172, nband= 12, wtk=  1.00000, kpt=  0.3897  0.3676  0.7426 (reduced coord)
  -2.49973   -1.27942   -1.27901   -1.27823   -0.40718    0.04278    0.06736    0.12482
   0.53407    0.58899    0.61507    0.80822
 kpt# 173, nband= 12, wtk=  1.00000, kpt=  0.4044  0.3603  0.7353 (reduced coord)
  -2.49973   -1.27940   -1.27904   -1.27823   -0.40723    0.04394    0.06635    0.12411
   0.53686    0.59165    0.61367    0.79604
 kpt# 174, nband= 12, wtk=  1.00000, kpt=  0.4191  0.3529  0.7279 (reduced coord)
  -2.49973   -1.27938   -1.27904   -1.27824   -0.40728    0.04486    0.06605    0.12280
   0.54067    0.59409    0.61218    0.78422
 kpt# 175, nband= 12, wtk=  1.00000, kpt=  0.4338  0.3456  0.7206 (reduced coord)
  -2.49973   -1.27937   -1.27902   -1.27824   -0.40732    0.04545    0.06649    0.12103
   0.54525    0.59588    0.61091    0.77335
 kpt# 176, nband= 12, wtk=  1.00000, kpt=  0.4485  0.3382  0.7132 (reduced coord)
  -2.49973   -1.27937   -1.27901   -1.27825   -0.40737    0.04570    0.06749    0.11906
   0.55019    0.59640    0.61039    0.76377
 kpt# 177, nband= 12, wtk=  1.00000, kpt=  0.4632  0.3309  0.7059 (reduced coord)
  -2.49974   -1.27937   -1.27898   -1.27826   -0.40740    0.04574    0.06876    0.11715
   0.55505    0.59549    0.61084    0.75600
 kpt# 178, nband= 12, wtk=  1.00000, kpt=  0.4779  0.3235  0.6985 (reduced coord)
  -2.49974   -1.27938   -1.27896   -1.27827   -0.40742    0.04567    0.06990    0.11561
   0.55914    0.59383    0.61169    0.75046
 kpt# 179, nband= 12, wtk=  1.00000, kpt=  0.4926  0.3162  0.6912 (reduced coord)
  -2.49974   -1.27937   -1.27895   -1.27826   -0.40743    0.04562    0.07059    0.11475
   0.56160    0.59256    0.61228    0.74759
 kpt# 180, nband= 12, wtk=  1.00000, kpt=  0.5074  0.3088  0.6838 (reduced coord)
  -2.49974   -1.27937   -1.27895   -1.27826   -0.40743    0.04562    0.07059    0.11475
   0.56160    0.59256    0.61228    0.74759
 kpt# 181, nband= 12, wtk=  1.00000, kpt=  0.5221  0.3015  0.6765 (reduced coord)
  -2.49974   -1.27938   -1.27896   -1.27827   -0.40742    0.04567    0.06990    0.11561
   0.55914    0.59383    0.61169    0.75046
 kpt# 182, nband= 12, wtk=  1.00000, kpt=  0.5368  0.2941  0.6691 (reduced coord)
  -2.49974   -1.27937   -1.27898   -1.27826   -0.40740    0.04574    0.06876    0.11715
   0.55505    0.59549    0.61084    0.75600
 kpt# 183, nband= 12, wtk=  1.00000, kpt=  0.5515  0.2868  0.6618 (reduced coord)
  -2.49973   -1.27937   -1.27901   -1.27825   -0.40737    0.04570    0.06749    0.11906
   0.55019    0.59640    0.61039    0.76377
 kpt# 184, nband= 12, wtk=  1.00000, kpt=  0.5662  0.2794  0.6544 (reduced coord)
  -2.49973   -1.27937   -1.27902   -1.27824   -0.40732    0.04545    0.06649    0.12103
   0.54525    0.59588    0.61091    0.77335
 kpt# 185, nband= 12, wtk=  1.00000, kpt=  0.5809  0.2721  0.6471 (reduced coord)
  -2.49973   -1.27938   -1.27904   -1.27824   -0.40728    0.04486    0.06605    0.12280
   0.54067    0.59409    0.61218    0.78422
 kpt# 186, nband= 12, wtk=  1.00000, kpt=  0.5956  0.2647  0.6397 (reduced coord)
  -2.49973   -1.27940   -1.27904   -1.27823   -0.40723    0.04394    0.06635    0.12411
   0.53686    0.59165    0.61367    0.79604
 kpt# 187, nband= 12, wtk=  1.00000, kpt=  0.6103  0.2574  0.6324 (reduced coord)
  -2.49973   -1.27942   -1.27901   -1.27823   -0.40718    0.04278    0.06736    0.12482
   0.53407    0.58899    0.61507    0.80821
 kpt# 188, nband= 12, wtk=  1.00000, kpt=  0.6250  0.2500  0.6250 (reduced coord)
  -2.49973   -1.27946   -1.27901   -1.27828   -0.40713    0.04155    0.06897    0.12477
   0.53248    0.58635    0.61615    0.81806
 kpt# 189, nband= 12, wtk=  1.00000, kpt=  0.6125  0.2250  0.6125 (reduced coord)
  -2.49973   -1.27953   -1.27892   -1.27832   -0.40705    0.03768    0.07546    0.12341
   0.52906    0.57732    0.61926    0.82191
 kpt# 190, nband= 12, wtk=  1.00000, kpt=  0.6000  0.2000  0.6000 (reduced coord)
  -2.49973   -1.27955   -1.27880   -1.27830   -0.40706    0.03417    0.08214    0.12221
   0.52538    0.56784    0.62232    0.82514
 kpt# 191, nband= 12, wtk=  1.00000, kpt=  0.5875  0.1750  0.5875 (reduced coord)
  -2.49973   -1.27962   -1.27875   -1.27832   -0.40716    0.03103    0.08879    0.12109
   0.52160    0.55821    0.62509    0.83009
 kpt# 192, nband= 12, wtk=  1.00000, kpt=  0.5750  0.1500  0.5750 (reduced coord)
  -2.49972   -1.27967   -1.27870   -1.27836   -0.40730    0.02829    0.09525    0.12010
   0.51784    0.54893    0.62760    0.83390
 kpt# 193, nband= 12, wtk=  1.00000, kpt=  0.5625  0.1250  0.5625 (reduced coord)
  -2.49972   -1.27970   -1.27862   -1.27838   -0.40747    0.02594    0.10128    0.11927
   0.51419    0.54047    0.62985    0.83415
 kpt# 194, nband= 12, wtk=  1.00000, kpt=  0.5500  0.1000  0.5500 (reduced coord)
  -2.49972   -1.27974   -1.27855   -1.27840   -0.40764    0.02402    0.10665    0.11857
   0.51067    0.53329    0.63172    0.83844
 kpt# 195, nband= 12, wtk=  1.00000, kpt=  0.5375  0.0750  0.5375 (reduced coord)
  -2.49972   -1.27980   -1.27850   -1.27844   -0.40779    0.02251    0.11112    0.11800
   0.50739    0.52773    0.63314    0.84209
 kpt# 196, nband= 12, wtk=  1.00000, kpt=  0.5250  0.0500  0.5250 (reduced coord)
  -2.49972   -1.27982   -1.27848   -1.27847   -0.40790    0.02143    0.11447    0.11760
   0.50462    0.52391    0.63422    0.84459
 kpt# 197, nband= 12, wtk=  1.00000, kpt=  0.5125  0.0250  0.5125 (reduced coord)
  -2.49972   -1.27988   -1.27849   -1.27848   -0.40798    0.02074    0.11657    0.11736
   0.50273    0.52172    0.63487    0.84653
 kpt# 198, nband= 12, wtk=  1.00000, kpt=  0.5000  0.0000  0.5000 (reduced coord)
  -2.49972   -1.27989   -1.27849   -1.27849   -0.40800    0.02052    0.11728    0.11728
   0.50206    0.52101    0.63509    0.84697

== END DATASET(S) ==============================================================
================================================================================
  
 -outvars: echo values of variables after computation  --------
-          iomode           3
            acell      1.0000000000E+00  1.0000000000E+00  1.0000000000E+00 Bohr
              amu      1.59994000E+01  2.43050000E+01
           diemac      9.00000000E+00
             ecut      3.50000000E+01 Hartree
-          fftalg         312
           irdden           1
             iscf          -2
           istwfk        2    0    0    0    0    0    0    0    0    0
                         0    0    0    0    0    0    0    0    0    0
                         0    0    0    0    0    0    0    0    5    0
                         0    0    0    0    0    0    0    0    0    0
                         0    0    0    0    0    0    0    0    0    0
                       outvar_i_n : Printing only first  50 k-points.
              ixc          11
              kpt      0.00000000E+00  0.00000000E+00  0.00000000E+00
                       1.78571429E-02  0.00000000E+00  1.78571429E-02
                       3.57142857E-02  0.00000000E+00  3.57142857E-02
                       5.35714286E-02  0.00000000E+00  5.35714286E-02
                       7.14285714E-02  0.00000000E+00  7.14285714E-02
                       8.92857143E-02  0.00000000E+00  8.92857143E-02
                       1.07142857E-01  0.00000000E+00  1.07142857E-01
                       1.25000000E-01  0.00000000E+00  1.25000000E-01
                       1.42857143E-01  0.00000000E+00  1.42857143E-01
                       1.60714286E-01  0.00000000E+00  1.60714286E-01
                       1.78571429E-01  0.00000000E+00  1.78571429E-01
                       1.96428571E-01  0.00000000E+00  1.96428571E-01
                       2.14285714E-01  0.00000000E+00  2.14285714E-01
                       2.32142857E-01  0.00000000E+00  2.32142857E-01
                       2.50000000E-01  0.00000000E+00  2.50000000E-01
                       2.67857143E-01  0.00000000E+00  2.67857143E-01
                       2.85714286E-01  0.00000000E+00  2.85714286E-01
                       3.03571429E-01  0.00000000E+00  3.03571429E-01
                       3.21428571E-01  0.00000000E+00  3.21428571E-01
                       3.39285714E-01  0.00000000E+00  3.39285714E-01
                       3.57142857E-01  0.00000000E+00  3.57142857E-01
                       3.75000000E-01  0.00000000E+00  3.75000000E-01
                       3.92857143E-01  0.00000000E+00  3.92857143E-01
                       4.10714286E-01  0.00000000E+00  4.10714286E-01
                       4.28571429E-01  0.00000000E+00  4.28571429E-01
                       4.46428571E-01  0.00000000E+00  4.46428571E-01
                       4.64285714E-01  0.00000000E+00  4.64285714E-01
                       4.82142857E-01  0.00000000E+00  4.82142857E-01
                       5.00000000E-01  0.00000000E+00  5.00000000E-01
                       5.00000000E-01  1.78571429E-02  5.17857143E-01
                       5.00000000E-01  3.57142857E-02  5.35714286E-01
                       5.00000000E-01  5.35714286E-02  5.53571429E-01
                       5.00000000E-01  7.14285714E-02  5.71428571E-01
                       5.00000000E-01  8.92857143E-02  5.89285714E-01
                       5.00000000E-01  1.07142857E-01  6.07142857E-01
                       5.00000000E-01  1.25000000E-01  6.25000000E-01
                       5.00000000E-01  1.42857143E-01  6.42857143E-01
                       5.00000000E-01  1.60714286E-01  6.60714286E-01
                       5.00000000E-01  1.78571429E-01  6.78571429E-01
                       5.00000000E-01  1.96428571E-01  6.96428571E-01
                       5.00000000E-01  2.14285714E-01  7.14285714E-01
                       5.00000000E-01  2.32142857E-01  7.32142857E-01
                       5.00000000E-01  2.50000000E-01  7.50000000E-01
                       4.87500000E-01  2.62500000E-01  7.50000000E-01
                       4.75000000E-01  2.75000000E-01  7.50000000E-01
                       4.62500000E-01  2.87500000E-01  7.50000000E-01
                       4.50000000E-01  3.00000000E-01  7.50000000E-01
                       4.37500000E-01  3.12500000E-01  7.50000000E-01
                       4.25000000E-01  3.25000000E-01  7.50000000E-01
                       4.12500000E-01  3.37500000E-01  7.50000000E-01
                       outvar_i_n : Printing only first  50 k-points.
           kptopt         -11
P           mkmem          99
            natom           2
            nband          12
           nbdbuf           4
           ndivsm          10
            ngfft          32      32      32
             nkpt         198
            nstep         150
             nsym          48
           ntypat           2
           prtden           0
           prtpot           1
            prtwf          -1
            rprim      0.0000000000E+00  4.0182361526E+00  4.0182361526E+00
                       4.0182361526E+00  0.0000000000E+00  4.0182361526E+00
                       4.0182361526E+00  4.0182361526E+00  0.0000000000E+00
           shiftk      5.00000000E-01  5.00000000E-01  5.00000000E-01
          spgroup         225
           symrel      1  0  0   0  1  0   0  0  1      -1  0  0   0 -1  0   0  0 -1
                       0 -1  1   0 -1  0   1 -1  0       0  1 -1   0  1  0  -1  1  0
                      -1  0  0  -1  0  1  -1  1  0       1  0  0   1  0 -1   1 -1  0
                       0  1 -1   1  0 -1   0  0 -1       0 -1  1  -1  0  1   0  0  1
                      -1  0  0  -1  1  0  -1  0  1       1  0  0   1 -1  0   1  0 -1
                       0 -1  1   1 -1  0   0 -1  0       0  1 -1  -1  1  0   0  1  0
                       1  0  0   0  0  1   0  1  0      -1  0  0   0  0 -1   0 -1  0
                       0  1 -1   0  0 -1   1  0 -1       0 -1  1   0  0  1  -1  0  1
                      -1  0  1  -1  1  0  -1  0  0       1  0 -1   1 -1  0   1  0  0
                       0 -1  0   1 -1  0   0 -1  1       0  1  0  -1  1  0   0  1 -1
                       1  0 -1   0  0 -1   0  1 -1      -1  0  1   0  0  1   0 -1  1
                       0  1  0   0  0  1   1  0  0       0 -1  0   0  0 -1  -1  0  0
                       1  0 -1   0  1 -1   0  0 -1      -1  0  1   0 -1  1   0  0  1
                       0 -1  0   0 -1  1   1 -1  0       0  1  0   0  1 -1  -1  1  0
                      -1  0  1  -1  0  0  -1  1  0       1  0 -1   1  0  0   1 -1  0
                       0  1  0   1  0  0   0  0  1       0 -1  0  -1  0  0   0  0 -1
                       0  0 -1   0  1 -1   1  0 -1       0  0  1   0 -1  1  -1  0  1
                       1 -1  0   0 -1  1   0 -1  0      -1  1  0   0  1 -1   0  1  0
                       0  0  1   1  0  0   0  1  0       0  0 -1  -1  0  0   0 -1  0
                      -1  1  0  -1  0  0  -1  0  1       1 -1  0   1  0  0   1  0 -1
                       0  0  1   0  1  0   1  0  0       0  0 -1   0 -1  0  -1  0  0
                       1 -1  0   0 -1  0   0 -1  1      -1  1  0   0  1  0   0  1 -1
                       0  0 -1   1  0 -1   0  1 -1       0  0  1  -1  0  1   0 -1  1
                      -1  1  0  -1  0  1  -1  0  0       1 -1  0   1  0 -1   1  0  0
           tolwfr      1.00000000E-18
            typat      2  1
                       outvars : Printing only first  50 k-points.
           xangst      0.0000000000E+00  0.0000000000E+00  0.0000000000E+00
                       2.1263589907E+00  2.1263589907E+00  2.1263589907E+00
            xcart      0.0000000000E+00  0.0000000000E+00  0.0000000000E+00
                       4.0182361526E+00  4.0182361526E+00  4.0182361526E+00
             xred      0.0000000000E+00  0.0000000000E+00  0.0000000000E+00
                       5.0000000000E-01  5.0000000000E-01  5.0000000000E-01
            znucl        8.00000   12.00000

================================================================================


- Timing analysis has been suppressed with timopt=0



================================================================================

 Suggested references for the acknowledgment of ABINIT usage.

 The users of ABINIT have little formal obligations with respect to the ABINIT group
 (those specified in the GNU General Public License, http://www.gnu.org/copyleft/gpl.txt).
 However, it is common practice in the scientific literature,
 to acknowledge the efforts of people that have made the research possible.
 In this spirit, please find below suggested citations of work written by ABINIT developers,
 corresponding to implementations inside of ABINIT that you have used in the present run.
 Note also that it will be of great value to readers of publications presenting these results,
 to read papers enabling them to understand the theoretical formalism and details
 of the ABINIT implementation.
 For information on why they are suggested, see also https://docs.abinit.org/theory/acknowledgments.
-
- [1] Specification of an extensible and portable file format for electronic structure and crystallographic data
- X. Gonze, C.-O. Almbladh, A. Cucca, D. Caliste, C. Freysoldt, M. Marques, V. Olevano, Y. Pouillon, M.J. Verstraete,
- Comput. Material Science 43, 1056 (2008).
- Comment: to be cited in case the ETSF_IO file format is used, i.e. iomode=3.
- DOI and bibtex: see https://docs.abinit.org/theory/bibliography/#gonze2008
-
- [2] The Abinit project: Impact, environment and recent developments.
- Computer Phys. Comm. 248, 107042 (2020).
- X.Gonze, B. Amadon, G. Antonius, F.Arnardi, L.Baguet, J.-M.Beuken,
- J.Bieder, F.Bottin, J.Bouchet, E.Bousquet, N.Brouwer, F.Bruneval,
- G.Brunin, T.Cavignac, J.-B. Charraud, Wei Chen, M.Cote, S.Cottenier,
- J.Denier, G.Geneste, Ph.Ghosez, M.Giantomassi, Y.Gillet, O.Gingras,
- D.R.Hamann, G.Hautier, Xu He, N.Helbig, N.Holzwarth, Y.Jia, F.Jollet,
- W.Lafargue-Dit-Hauret, K.Lejaeghere, M.A.L.Marques, A.Martin, C.Martins,
- H.P.C. Miranda, F.Naccarato, K. Persson, G.Petretto, V.Planes, Y.Pouillon,
- S.Prokhorenko, F.Ricci, G.-M.Rignanese, A.H.Romero, M.M.Schmitt, M.Torrent,
- M.J.van Setten, B.Van Troeye, M.J.Verstraete, G.Zerah and J.W.Zwanzig
- Comment: the fifth generic paper describing the ABINIT project.
- Note that a version of this paper, that is not formatted for Computer Phys. Comm. 
- is available at https://www.abinit.org/sites/default/files/ABINIT20.pdf .
- The licence allows the authors to put it on the Web.
- DOI and bibtex: see https://docs.abinit.org/theory/bibliography/#gonze2020
-
- [3] Optimized norm-conserving Vanderbilt pseudopotentials.
- D.R. Hamann, Phys. Rev. B 88, 085117 (2013).
- Comment: Some pseudopotential generated using the ONCVPSP code were used.
- DOI and bibtex: see https://docs.abinit.org/theory/bibliography/#hamann2013
-
- [4] Recent developments in the ABINIT software package.
- Computer Phys. Comm. 205, 106 (2016).
- X.Gonze, F.Jollet, F.Abreu Araujo, D.Adams, B.Amadon, T.Applencourt,
- C.Audouze, J.-M.Beuken, J.Bieder, A.Bokhanchuk, E.Bousquet, F.Bruneval
- D.Caliste, M.Cote, F.Dahm, F.Da Pieve, M.Delaveau, M.Di Gennaro,
- B.Dorado, C.Espejo, G.Geneste, L.Genovese, A.Gerossier, M.Giantomassi,
- Y.Gillet, D.R.Hamann, L.He, G.Jomard, J.Laflamme Janssen, S.Le Roux,
- A.Levitt, A.Lherbier, F.Liu, I.Lukacevic, A.Martin, C.Martins,
- M.J.T.Oliveira, S.Ponce, Y.Pouillon, T.Rangel, G.-M.Rignanese,
- A.H.Romero, B.Rousseau, O.Rubel, A.A.Shukri, M.Stankovski, M.Torrent,
- M.J.Van Setten, B.Van Troeye, M.J.Verstraete, D.Waroquier, J.Wiktor,
- B.Xu, A.Zhou, J.W.Zwanziger.
- Comment: the fourth generic paper describing the ABINIT project.
- Note that a version of this paper, that is not formatted for Computer Phys. Comm. 
- is available at https://www.abinit.org/sites/default/files/ABINIT16.pdf .
- The licence allows the authors to put it on the Web.
- DOI and bibtex: see https://docs.abinit.org/theory/bibliography/#gonze2016
-
- [5] ABINIT: First-principles approach of materials and nanosystem properties.
- Computer Phys. Comm. 180, 2582-2615 (2009).
- X. Gonze, B. Amadon, P.-M. Anglade, J.-M. Beuken, F. Bottin, P. Boulanger, F. Bruneval,
- D. Caliste, R. Caracas, M. Cote, T. Deutsch, L. Genovese, Ph. Ghosez, M. Giantomassi
- S. Goedecker, D.R. Hamann, P. Hermet, F. Jollet, G. Jomard, S. Leroux, M. Mancini, S. Mazevet,
- M.J.T. Oliveira, G. Onida, Y. Pouillon, T. Rangel, G.-M. Rignanese, D. Sangalli, R. Shaltaf,
- M. Torrent, M.J. Verstraete, G. Zerah, J.W. Zwanziger
- Comment: the third generic paper describing the ABINIT project.
- Note that a version of this paper, that is not formatted for Computer Phys. Comm. 
- is available at https://www.abinit.org/sites/default/files/ABINIT_CPC_v10.pdf .
- The licence allows the authors to put it on the Web.
- DOI and bibtex: see https://docs.abinit.org/theory/bibliography/#gonze2009
-
- Proc.   0 individual time (sec): cpu=         50.4  wall=        122.2

================================================================================

 Calculation completed.
.Delivered   0 WARNINGs and   0 COMMENTs to log file.
+Overall time at end (sec) : cpu=        100.2  wall=        244.3
